# System

972 atoms
648 bonds
324 angles
2 atom types
1 bond types
1 angle types
extra bond per atom 2
extra angle per atom 1
extra special per atom 2
-10  10 xlo xhi
-10  10 ylo yhi
-30  30 zlo zhi

Atoms

1	1	1	-1.1128	-9.15	-9.15	-15	
2	1	2	0.5564	-8.1916	-9.15	-15	
3	1	2	0.5564	-9.39	-8.2221	-15	
4	2	1	-1.1128	-5.75	-9.15	-15	
5	2	2	0.5564	-4.7916	-9.15	-15	
6	2	2	0.5564	-5.99	-8.2221	-15	
7	3	1	-1.1128	-2.35	-9.15	-15	
8	3	2	0.5564	-1.3916	-9.15	-15	
9	3	2	0.5564	-2.59	-8.2221	-15	
10	4	1	-1.1128	1.05	-9.15	-15	
11	4	2	0.5564	2.0084	-9.15	-15	
12	4	2	0.5564	0.81004	-8.2221	-15	
13	5	1	-1.1128	4.45	-9.15	-15	
14	5	2	0.5564	5.4084	-9.15	-15	
15	5	2	0.5564	4.21	-8.2221	-15	
16	6	1	-1.1128	7.85	-9.15	-15	
17	6	2	0.5564	8.8084	-9.15	-15	
18	6	2	0.5564	7.61	-8.2221	-15	
19	7	1	-1.1128	-9.15	-5.75	-15	
20	7	2	0.5564	-8.1916	-5.75	-15	
21	7	2	0.5564	-9.39	-4.8221	-15	
22	8	1	-1.1128	-5.75	-5.75	-15	
23	8	2	0.5564	-4.7916	-5.75	-15	
24	8	2	0.5564	-5.99	-4.8221	-15	
25	9	1	-1.1128	-2.35	-5.75	-15	
26	9	2	0.5564	-1.3916	-5.75	-15	
27	9	2	0.5564	-2.59	-4.8221	-15	
28	10	1	-1.1128	1.05	-5.75	-15	
29	10	2	0.5564	2.0084	-5.75	-15	
30	10	2	0.5564	0.81004	-4.8221	-15	
31	11	1	-1.1128	4.45	-5.75	-15	
32	11	2	0.5564	5.4084	-5.75	-15	
33	11	2	0.5564	4.21	-4.8221	-15	
34	12	1	-1.1128	7.85	-5.75	-15	
35	12	2	0.5564	8.8084	-5.75	-15	
36	12	2	0.5564	7.61	-4.8221	-15	
37	13	1	-1.1128	-9.15	-2.35	-15	
38	13	2	0.5564	-8.1916	-2.35	-15	
39	13	2	0.5564	-9.39	-1.4221	-15	
40	14	1	-1.1128	-5.75	-2.35	-15	
41	14	2	0.5564	-4.7916	-2.35	-15	
42	14	2	0.5564	-5.99	-1.4221	-15	
43	15	1	-1.1128	-2.35	-2.35	-15	
44	15	2	0.5564	-1.3916	-2.35	-15	
45	15	2	0.5564	-2.59	-1.4221	-15	
46	16	1	-1.1128	1.05	-2.35	-15	
47	16	2	0.5564	2.0084	-2.35	-15	
48	16	2	0.5564	0.81004	-1.4221	-15	
49	17	1	-1.1128	4.45	-2.35	-15	
50	17	2	0.5564	5.4084	-2.35	-15	
51	17	2	0.5564	4.21	-1.4221	-15	
52	18	1	-1.1128	7.85	-2.35	-15	
53	18	2	0.5564	8.8084	-2.35	-15	
54	18	2	0.5564	7.61	-1.4221	-15	
55	19	1	-1.1128	-9.15	1.05	-15	
56	19	2	0.5564	-8.1916	1.05	-15	
57	19	2	0.5564	-9.39	1.9779	-15	
58	20	1	-1.1128	-5.75	1.05	-15	
59	20	2	0.5564	-4.7916	1.05	-15	
60	20	2	0.5564	-5.99	1.9779	-15	
61	21	1	-1.1128	-2.35	1.05	-15	
62	21	2	0.5564	-1.3916	1.05	-15	
63	21	2	0.5564	-2.59	1.9779	-15	
64	22	1	-1.1128	1.05	1.05	-15	
65	22	2	0.5564	2.0084	1.05	-15	
66	22	2	0.5564	0.81004	1.9779	-15	
67	23	1	-1.1128	4.45	1.05	-15	
68	23	2	0.5564	5.4084	1.05	-15	
69	23	2	0.5564	4.21	1.9779	-15	
70	24	1	-1.1128	7.85	1.05	-15	
71	24	2	0.5564	8.8084	1.05	-15	
72	24	2	0.5564	7.61	1.9779	-15	
73	25	1	-1.1128	-9.15	4.45	-15	
74	25	2	0.5564	-8.1916	4.45	-15	
75	25	2	0.5564	-9.39	5.3779	-15	
76	26	1	-1.1128	-5.75	4.45	-15	
77	26	2	0.5564	-4.7916	4.45	-15	
78	26	2	0.5564	-5.99	5.3779	-15	
79	27	1	-1.1128	-2.35	4.45	-15	
80	27	2	0.5564	-1.3916	4.45	-15	
81	27	2	0.5564	-2.59	5.3779	-15	
82	28	1	-1.1128	1.05	4.45	-15	
83	28	2	0.5564	2.0084	4.45	-15	
84	28	2	0.5564	0.81004	5.3779	-15	
85	29	1	-1.1128	4.45	4.45	-15	
86	29	2	0.5564	5.4084	4.45	-15	
87	29	2	0.5564	4.21	5.3779	-15	
88	30	1	-1.1128	7.85	4.45	-15	
89	30	2	0.5564	8.8084	4.45	-15	
90	30	2	0.5564	7.61	5.3779	-15	
91	31	1	-1.1128	-9.15	7.85	-15	
92	31	2	0.5564	-8.1916	7.85	-15	
93	31	2	0.5564	-9.39	8.7779	-15	
94	32	1	-1.1128	-5.75	7.85	-15	
95	32	2	0.5564	-4.7916	7.85	-15	
96	32	2	0.5564	-5.99	8.7779	-15	
97	33	1	-1.1128	-2.35	7.85	-15	
98	33	2	0.5564	-1.3916	7.85	-15	
99	33	2	0.5564	-2.59	8.7779	-15	
100	34	1	-1.1128	1.05	7.85	-15	
101	34	2	0.5564	2.0084	7.85	-15	
102	34	2	0.5564	0.81004	8.7779	-15	
103	35	1	-1.1128	4.45	7.85	-15	
104	35	2	0.5564	5.4084	7.85	-15	
105	35	2	0.5564	4.21	8.7779	-15	
106	36	1	-1.1128	7.85	7.85	-15	
107	36	2	0.5564	8.8084	7.85	-15	
108	36	2	0.5564	7.61	8.7779	-15	
109	37	1	-1.1128	-9.15	-9.15	-11.6	
110	37	2	0.5564	-8.1916	-9.15	-11.6	
111	37	2	0.5564	-9.39	-8.2221	-11.6	
112	38	1	-1.1128	-5.75	-9.15	-11.6	
113	38	2	0.5564	-4.7916	-9.15	-11.6	
114	38	2	0.5564	-5.99	-8.2221	-11.6	
115	39	1	-1.1128	-2.35	-9.15	-11.6	
116	39	2	0.5564	-1.3916	-9.15	-11.6	
117	39	2	0.5564	-2.59	-8.2221	-11.6	
118	40	1	-1.1128	1.05	-9.15	-11.6	
119	40	2	0.5564	2.0084	-9.15	-11.6	
120	40	2	0.5564	0.81004	-8.2221	-11.6	
121	41	1	-1.1128	4.45	-9.15	-11.6	
122	41	2	0.5564	5.4084	-9.15	-11.6	
123	41	2	0.5564	4.21	-8.2221	-11.6	
124	42	1	-1.1128	7.85	-9.15	-11.6	
125	42	2	0.5564	8.8084	-9.15	-11.6	
126	42	2	0.5564	7.61	-8.2221	-11.6	
127	43	1	-1.1128	-9.15	-5.75	-11.6	
128	43	2	0.5564	-8.1916	-5.75	-11.6	
129	43	2	0.5564	-9.39	-4.8221	-11.6	
130	44	1	-1.1128	-5.75	-5.75	-11.6	
131	44	2	0.5564	-4.7916	-5.75	-11.6	
132	44	2	0.5564	-5.99	-4.8221	-11.6	
133	45	1	-1.1128	-2.35	-5.75	-11.6	
134	45	2	0.5564	-1.3916	-5.75	-11.6	
135	45	2	0.5564	-2.59	-4.8221	-11.6	
136	46	1	-1.1128	1.05	-5.75	-11.6	
137	46	2	0.5564	2.0084	-5.75	-11.6	
138	46	2	0.5564	0.81004	-4.8221	-11.6	
139	47	1	-1.1128	4.45	-5.75	-11.6	
140	47	2	0.5564	5.4084	-5.75	-11.6	
141	47	2	0.5564	4.21	-4.8221	-11.6	
142	48	1	-1.1128	7.85	-5.75	-11.6	
143	48	2	0.5564	8.8084	-5.75	-11.6	
144	48	2	0.5564	7.61	-4.8221	-11.6	
145	49	1	-1.1128	-9.15	-2.35	-11.6	
146	49	2	0.5564	-8.1916	-2.35	-11.6	
147	49	2	0.5564	-9.39	-1.4221	-11.6	
148	50	1	-1.1128	-5.75	-2.35	-11.6	
149	50	2	0.5564	-4.7916	-2.35	-11.6	
150	50	2	0.5564	-5.99	-1.4221	-11.6	
151	51	1	-1.1128	-2.35	-2.35	-11.6	
152	51	2	0.5564	-1.3916	-2.35	-11.6	
153	51	2	0.5564	-2.59	-1.4221	-11.6	
154	52	1	-1.1128	1.05	-2.35	-11.6	
155	52	2	0.5564	2.0084	-2.35	-11.6	
156	52	2	0.5564	0.81004	-1.4221	-11.6	
157	53	1	-1.1128	4.45	-2.35	-11.6	
158	53	2	0.5564	5.4084	-2.35	-11.6	
159	53	2	0.5564	4.21	-1.4221	-11.6	
160	54	1	-1.1128	7.85	-2.35	-11.6	
161	54	2	0.5564	8.8084	-2.35	-11.6	
162	54	2	0.5564	7.61	-1.4221	-11.6	
163	55	1	-1.1128	-9.15	1.05	-11.6	
164	55	2	0.5564	-8.1916	1.05	-11.6	
165	55	2	0.5564	-9.39	1.9779	-11.6	
166	56	1	-1.1128	-5.75	1.05	-11.6	
167	56	2	0.5564	-4.7916	1.05	-11.6	
168	56	2	0.5564	-5.99	1.9779	-11.6	
169	57	1	-1.1128	-2.35	1.05	-11.6	
170	57	2	0.5564	-1.3916	1.05	-11.6	
171	57	2	0.5564	-2.59	1.9779	-11.6	
172	58	1	-1.1128	1.05	1.05	-11.6	
173	58	2	0.5564	2.0084	1.05	-11.6	
174	58	2	0.5564	0.81004	1.9779	-11.6	
175	59	1	-1.1128	4.45	1.05	-11.6	
176	59	2	0.5564	5.4084	1.05	-11.6	
177	59	2	0.5564	4.21	1.9779	-11.6	
178	60	1	-1.1128	7.85	1.05	-11.6	
179	60	2	0.5564	8.8084	1.05	-11.6	
180	60	2	0.5564	7.61	1.9779	-11.6	
181	61	1	-1.1128	-9.15	4.45	-11.6	
182	61	2	0.5564	-8.1916	4.45	-11.6	
183	61	2	0.5564	-9.39	5.3779	-11.6	
184	62	1	-1.1128	-5.75	4.45	-11.6	
185	62	2	0.5564	-4.7916	4.45	-11.6	
186	62	2	0.5564	-5.99	5.3779	-11.6	
187	63	1	-1.1128	-2.35	4.45	-11.6	
188	63	2	0.5564	-1.3916	4.45	-11.6	
189	63	2	0.5564	-2.59	5.3779	-11.6	
190	64	1	-1.1128	1.05	4.45	-11.6	
191	64	2	0.5564	2.0084	4.45	-11.6	
192	64	2	0.5564	0.81004	5.3779	-11.6	
193	65	1	-1.1128	4.45	4.45	-11.6	
194	65	2	0.5564	5.4084	4.45	-11.6	
195	65	2	0.5564	4.21	5.3779	-11.6	
196	66	1	-1.1128	7.85	4.45	-11.6	
197	66	2	0.5564	8.8084	4.45	-11.6	
198	66	2	0.5564	7.61	5.3779	-11.6	
199	67	1	-1.1128	-9.15	7.85	-11.6	
200	67	2	0.5564	-8.1916	7.85	-11.6	
201	67	2	0.5564	-9.39	8.7779	-11.6	
202	68	1	-1.1128	-5.75	7.85	-11.6	
203	68	2	0.5564	-4.7916	7.85	-11.6	
204	68	2	0.5564	-5.99	8.7779	-11.6	
205	69	1	-1.1128	-2.35	7.85	-11.6	
206	69	2	0.5564	-1.3916	7.85	-11.6	
207	69	2	0.5564	-2.59	8.7779	-11.6	
208	70	1	-1.1128	1.05	7.85	-11.6	
209	70	2	0.5564	2.0084	7.85	-11.6	
210	70	2	0.5564	0.81004	8.7779	-11.6	
211	71	1	-1.1128	4.45	7.85	-11.6	
212	71	2	0.5564	5.4084	7.85	-11.6	
213	71	2	0.5564	4.21	8.7779	-11.6	
214	72	1	-1.1128	7.85	7.85	-11.6	
215	72	2	0.5564	8.8084	7.85	-11.6	
216	72	2	0.5564	7.61	8.7779	-11.6	
217	73	1	-1.1128	-9.15	-9.15	-8.2	
218	73	2	0.5564	-8.1916	-9.15	-8.2	
219	73	2	0.5564	-9.39	-8.2221	-8.2	
220	74	1	-1.1128	-5.75	-9.15	-8.2	
221	74	2	0.5564	-4.7916	-9.15	-8.2	
222	74	2	0.5564	-5.99	-8.2221	-8.2	
223	75	1	-1.1128	-2.35	-9.15	-8.2	
224	75	2	0.5564	-1.3916	-9.15	-8.2	
225	75	2	0.5564	-2.59	-8.2221	-8.2	
226	76	1	-1.1128	1.05	-9.15	-8.2	
227	76	2	0.5564	2.0084	-9.15	-8.2	
228	76	2	0.5564	0.81004	-8.2221	-8.2	
229	77	1	-1.1128	4.45	-9.15	-8.2	
230	77	2	0.5564	5.4084	-9.15	-8.2	
231	77	2	0.5564	4.21	-8.2221	-8.2	
232	78	1	-1.1128	7.85	-9.15	-8.2	
233	78	2	0.5564	8.8084	-9.15	-8.2	
234	78	2	0.5564	7.61	-8.2221	-8.2	
235	79	1	-1.1128	-9.15	-5.75	-8.2	
236	79	2	0.5564	-8.1916	-5.75	-8.2	
237	79	2	0.5564	-9.39	-4.8221	-8.2	
238	80	1	-1.1128	-5.75	-5.75	-8.2	
239	80	2	0.5564	-4.7916	-5.75	-8.2	
240	80	2	0.5564	-5.99	-4.8221	-8.2	
241	81	1	-1.1128	-2.35	-5.75	-8.2	
242	81	2	0.5564	-1.3916	-5.75	-8.2	
243	81	2	0.5564	-2.59	-4.8221	-8.2	
244	82	1	-1.1128	1.05	-5.75	-8.2	
245	82	2	0.5564	2.0084	-5.75	-8.2	
246	82	2	0.5564	0.81004	-4.8221	-8.2	
247	83	1	-1.1128	4.45	-5.75	-8.2	
248	83	2	0.5564	5.4084	-5.75	-8.2	
249	83	2	0.5564	4.21	-4.8221	-8.2	
250	84	1	-1.1128	7.85	-5.75	-8.2	
251	84	2	0.5564	8.8084	-5.75	-8.2	
252	84	2	0.5564	7.61	-4.8221	-8.2	
253	85	1	-1.1128	-9.15	-2.35	-8.2	
254	85	2	0.5564	-8.1916	-2.35	-8.2	
255	85	2	0.5564	-9.39	-1.4221	-8.2	
256	86	1	-1.1128	-5.75	-2.35	-8.2	
257	86	2	0.5564	-4.7916	-2.35	-8.2	
258	86	2	0.5564	-5.99	-1.4221	-8.2	
259	87	1	-1.1128	-2.35	-2.35	-8.2	
260	87	2	0.5564	-1.3916	-2.35	-8.2	
261	87	2	0.5564	-2.59	-1.4221	-8.2	
262	88	1	-1.1128	1.05	-2.35	-8.2	
263	88	2	0.5564	2.0084	-2.35	-8.2	
264	88	2	0.5564	0.81004	-1.4221	-8.2	
265	89	1	-1.1128	4.45	-2.35	-8.2	
266	89	2	0.5564	5.4084	-2.35	-8.2	
267	89	2	0.5564	4.21	-1.4221	-8.2	
268	90	1	-1.1128	7.85	-2.35	-8.2	
269	90	2	0.5564	8.8084	-2.35	-8.2	
270	90	2	0.5564	7.61	-1.4221	-8.2	
271	91	1	-1.1128	-9.15	1.05	-8.2	
272	91	2	0.5564	-8.1916	1.05	-8.2	
273	91	2	0.5564	-9.39	1.9779	-8.2	
274	92	1	-1.1128	-5.75	1.05	-8.2	
275	92	2	0.5564	-4.7916	1.05	-8.2	
276	92	2	0.5564	-5.99	1.9779	-8.2	
277	93	1	-1.1128	-2.35	1.05	-8.2	
278	93	2	0.5564	-1.3916	1.05	-8.2	
279	93	2	0.5564	-2.59	1.9779	-8.2	
280	94	1	-1.1128	1.05	1.05	-8.2	
281	94	2	0.5564	2.0084	1.05	-8.2	
282	94	2	0.5564	0.81004	1.9779	-8.2	
283	95	1	-1.1128	4.45	1.05	-8.2	
284	95	2	0.5564	5.4084	1.05	-8.2	
285	95	2	0.5564	4.21	1.9779	-8.2	
286	96	1	-1.1128	7.85	1.05	-8.2	
287	96	2	0.5564	8.8084	1.05	-8.2	
288	96	2	0.5564	7.61	1.9779	-8.2	
289	97	1	-1.1128	-9.15	4.45	-8.2	
290	97	2	0.5564	-8.1916	4.45	-8.2	
291	97	2	0.5564	-9.39	5.3779	-8.2	
292	98	1	-1.1128	-5.75	4.45	-8.2	
293	98	2	0.5564	-4.7916	4.45	-8.2	
294	98	2	0.5564	-5.99	5.3779	-8.2	
295	99	1	-1.1128	-2.35	4.45	-8.2	
296	99	2	0.5564	-1.3916	4.45	-8.2	
297	99	2	0.5564	-2.59	5.3779	-8.2	
298	100	1	-1.1128	1.05	4.45	-8.2	
299	100	2	0.5564	2.0084	4.45	-8.2	
300	100	2	0.5564	0.81004	5.3779	-8.2	
301	101	1	-1.1128	4.45	4.45	-8.2	
302	101	2	0.5564	5.4084	4.45	-8.2	
303	101	2	0.5564	4.21	5.3779	-8.2	
304	102	1	-1.1128	7.85	4.45	-8.2	
305	102	2	0.5564	8.8084	4.45	-8.2	
306	102	2	0.5564	7.61	5.3779	-8.2	
307	103	1	-1.1128	-9.15	7.85	-8.2	
308	103	2	0.5564	-8.1916	7.85	-8.2	
309	103	2	0.5564	-9.39	8.7779	-8.2	
310	104	1	-1.1128	-5.75	7.85	-8.2	
311	104	2	0.5564	-4.7916	7.85	-8.2	
312	104	2	0.5564	-5.99	8.7779	-8.2	
313	105	1	-1.1128	-2.35	7.85	-8.2	
314	105	2	0.5564	-1.3916	7.85	-8.2	
315	105	2	0.5564	-2.59	8.7779	-8.2	
316	106	1	-1.1128	1.05	7.85	-8.2	
317	106	2	0.5564	2.0084	7.85	-8.2	
318	106	2	0.5564	0.81004	8.7779	-8.2	
319	107	1	-1.1128	4.45	7.85	-8.2	
320	107	2	0.5564	5.4084	7.85	-8.2	
321	107	2	0.5564	4.21	8.7779	-8.2	
322	108	1	-1.1128	7.85	7.85	-8.2	
323	108	2	0.5564	8.8084	7.85	-8.2	
324	108	2	0.5564	7.61	8.7779	-8.2	
325	109	1	-1.1128	-9.15	-9.15	-4.8	
326	109	2	0.5564	-8.1916	-9.15	-4.8	
327	109	2	0.5564	-9.39	-8.2221	-4.8	
328	110	1	-1.1128	-5.75	-9.15	-4.8	
329	110	2	0.5564	-4.7916	-9.15	-4.8	
330	110	2	0.5564	-5.99	-8.2221	-4.8	
331	111	1	-1.1128	-2.35	-9.15	-4.8	
332	111	2	0.5564	-1.3916	-9.15	-4.8	
333	111	2	0.5564	-2.59	-8.2221	-4.8	
334	112	1	-1.1128	1.05	-9.15	-4.8	
335	112	2	0.5564	2.0084	-9.15	-4.8	
336	112	2	0.5564	0.81004	-8.2221	-4.8	
337	113	1	-1.1128	4.45	-9.15	-4.8	
338	113	2	0.5564	5.4084	-9.15	-4.8	
339	113	2	0.5564	4.21	-8.2221	-4.8	
340	114	1	-1.1128	7.85	-9.15	-4.8	
341	114	2	0.5564	8.8084	-9.15	-4.8	
342	114	2	0.5564	7.61	-8.2221	-4.8	
343	115	1	-1.1128	-9.15	-5.75	-4.8	
344	115	2	0.5564	-8.1916	-5.75	-4.8	
345	115	2	0.5564	-9.39	-4.8221	-4.8	
346	116	1	-1.1128	-5.75	-5.75	-4.8	
347	116	2	0.5564	-4.7916	-5.75	-4.8	
348	116	2	0.5564	-5.99	-4.8221	-4.8	
349	117	1	-1.1128	-2.35	-5.75	-4.8	
350	117	2	0.5564	-1.3916	-5.75	-4.8	
351	117	2	0.5564	-2.59	-4.8221	-4.8	
352	118	1	-1.1128	1.05	-5.75	-4.8	
353	118	2	0.5564	2.0084	-5.75	-4.8	
354	118	2	0.5564	0.81004	-4.8221	-4.8	
355	119	1	-1.1128	4.45	-5.75	-4.8	
356	119	2	0.5564	5.4084	-5.75	-4.8	
357	119	2	0.5564	4.21	-4.8221	-4.8	
358	120	1	-1.1128	7.85	-5.75	-4.8	
359	120	2	0.5564	8.8084	-5.75	-4.8	
360	120	2	0.5564	7.61	-4.8221	-4.8	
361	121	1	-1.1128	-9.15	-2.35	-4.8	
362	121	2	0.5564	-8.1916	-2.35	-4.8	
363	121	2	0.5564	-9.39	-1.4221	-4.8	
364	122	1	-1.1128	-5.75	-2.35	-4.8	
365	122	2	0.5564	-4.7916	-2.35	-4.8	
366	122	2	0.5564	-5.99	-1.4221	-4.8	
367	123	1	-1.1128	-2.35	-2.35	-4.8	
368	123	2	0.5564	-1.3916	-2.35	-4.8	
369	123	2	0.5564	-2.59	-1.4221	-4.8	
370	124	1	-1.1128	1.05	-2.35	-4.8	
371	124	2	0.5564	2.0084	-2.35	-4.8	
372	124	2	0.5564	0.81004	-1.4221	-4.8	
373	125	1	-1.1128	4.45	-2.35	-4.8	
374	125	2	0.5564	5.4084	-2.35	-4.8	
375	125	2	0.5564	4.21	-1.4221	-4.8	
376	126	1	-1.1128	7.85	-2.35	-4.8	
377	126	2	0.5564	8.8084	-2.35	-4.8	
378	126	2	0.5564	7.61	-1.4221	-4.8	
379	127	1	-1.1128	-9.15	1.05	-4.8	
380	127	2	0.5564	-8.1916	1.05	-4.8	
381	127	2	0.5564	-9.39	1.9779	-4.8	
382	128	1	-1.1128	-5.75	1.05	-4.8	
383	128	2	0.5564	-4.7916	1.05	-4.8	
384	128	2	0.5564	-5.99	1.9779	-4.8	
385	129	1	-1.1128	-2.35	1.05	-4.8	
386	129	2	0.5564	-1.3916	1.05	-4.8	
387	129	2	0.5564	-2.59	1.9779	-4.8	
388	130	1	-1.1128	1.05	1.05	-4.8	
389	130	2	0.5564	2.0084	1.05	-4.8	
390	130	2	0.5564	0.81004	1.9779	-4.8	
391	131	1	-1.1128	4.45	1.05	-4.8	
392	131	2	0.5564	5.4084	1.05	-4.8	
393	131	2	0.5564	4.21	1.9779	-4.8	
394	132	1	-1.1128	7.85	1.05	-4.8	
395	132	2	0.5564	8.8084	1.05	-4.8	
396	132	2	0.5564	7.61	1.9779	-4.8	
397	133	1	-1.1128	-9.15	4.45	-4.8	
398	133	2	0.5564	-8.1916	4.45	-4.8	
399	133	2	0.5564	-9.39	5.3779	-4.8	
400	134	1	-1.1128	-5.75	4.45	-4.8	
401	134	2	0.5564	-4.7916	4.45	-4.8	
402	134	2	0.5564	-5.99	5.3779	-4.8	
403	135	1	-1.1128	-2.35	4.45	-4.8	
404	135	2	0.5564	-1.3916	4.45	-4.8	
405	135	2	0.5564	-2.59	5.3779	-4.8	
406	136	1	-1.1128	1.05	4.45	-4.8	
407	136	2	0.5564	2.0084	4.45	-4.8	
408	136	2	0.5564	0.81004	5.3779	-4.8	
409	137	1	-1.1128	4.45	4.45	-4.8	
410	137	2	0.5564	5.4084	4.45	-4.8	
411	137	2	0.5564	4.21	5.3779	-4.8	
412	138	1	-1.1128	7.85	4.45	-4.8	
413	138	2	0.5564	8.8084	4.45	-4.8	
414	138	2	0.5564	7.61	5.3779	-4.8	
415	139	1	-1.1128	-9.15	7.85	-4.8	
416	139	2	0.5564	-8.1916	7.85	-4.8	
417	139	2	0.5564	-9.39	8.7779	-4.8	
418	140	1	-1.1128	-5.75	7.85	-4.8	
419	140	2	0.5564	-4.7916	7.85	-4.8	
420	140	2	0.5564	-5.99	8.7779	-4.8	
421	141	1	-1.1128	-2.35	7.85	-4.8	
422	141	2	0.5564	-1.3916	7.85	-4.8	
423	141	2	0.5564	-2.59	8.7779	-4.8	
424	142	1	-1.1128	1.05	7.85	-4.8	
425	142	2	0.5564	2.0084	7.85	-4.8	
426	142	2	0.5564	0.81004	8.7779	-4.8	
427	143	1	-1.1128	4.45	7.85	-4.8	
428	143	2	0.5564	5.4084	7.85	-4.8	
429	143	2	0.5564	4.21	8.7779	-4.8	
430	144	1	-1.1128	7.85	7.85	-4.8	
431	144	2	0.5564	8.8084	7.85	-4.8	
432	144	2	0.5564	7.61	8.7779	-4.8	
433	145	1	-1.1128	-9.15	-9.15	-1.4	
434	145	2	0.5564	-8.1916	-9.15	-1.4	
435	145	2	0.5564	-9.39	-8.2221	-1.4	
436	146	1	-1.1128	-5.75	-9.15	-1.4	
437	146	2	0.5564	-4.7916	-9.15	-1.4	
438	146	2	0.5564	-5.99	-8.2221	-1.4	
439	147	1	-1.1128	-2.35	-9.15	-1.4	
440	147	2	0.5564	-1.3916	-9.15	-1.4	
441	147	2	0.5564	-2.59	-8.2221	-1.4	
442	148	1	-1.1128	1.05	-9.15	-1.4	
443	148	2	0.5564	2.0084	-9.15	-1.4	
444	148	2	0.5564	0.81004	-8.2221	-1.4	
445	149	1	-1.1128	4.45	-9.15	-1.4	
446	149	2	0.5564	5.4084	-9.15	-1.4	
447	149	2	0.5564	4.21	-8.2221	-1.4	
448	150	1	-1.1128	7.85	-9.15	-1.4	
449	150	2	0.5564	8.8084	-9.15	-1.4	
450	150	2	0.5564	7.61	-8.2221	-1.4	
451	151	1	-1.1128	-9.15	-5.75	-1.4	
452	151	2	0.5564	-8.1916	-5.75	-1.4	
453	151	2	0.5564	-9.39	-4.8221	-1.4	
454	152	1	-1.1128	-5.75	-5.75	-1.4	
455	152	2	0.5564	-4.7916	-5.75	-1.4	
456	152	2	0.5564	-5.99	-4.8221	-1.4	
457	153	1	-1.1128	-2.35	-5.75	-1.4	
458	153	2	0.5564	-1.3916	-5.75	-1.4	
459	153	2	0.5564	-2.59	-4.8221	-1.4	
460	154	1	-1.1128	1.05	-5.75	-1.4	
461	154	2	0.5564	2.0084	-5.75	-1.4	
462	154	2	0.5564	0.81004	-4.8221	-1.4	
463	155	1	-1.1128	4.45	-5.75	-1.4	
464	155	2	0.5564	5.4084	-5.75	-1.4	
465	155	2	0.5564	4.21	-4.8221	-1.4	
466	156	1	-1.1128	7.85	-5.75	-1.4	
467	156	2	0.5564	8.8084	-5.75	-1.4	
468	156	2	0.5564	7.61	-4.8221	-1.4	
469	157	1	-1.1128	-9.15	-2.35	-1.4	
470	157	2	0.5564	-8.1916	-2.35	-1.4	
471	157	2	0.5564	-9.39	-1.4221	-1.4	
472	158	1	-1.1128	-5.75	-2.35	-1.4	
473	158	2	0.5564	-4.7916	-2.35	-1.4	
474	158	2	0.5564	-5.99	-1.4221	-1.4	
475	159	1	-1.1128	-2.35	-2.35	-1.4	
476	159	2	0.5564	-1.3916	-2.35	-1.4	
477	159	2	0.5564	-2.59	-1.4221	-1.4	
478	160	1	-1.1128	1.05	-2.35	-1.4	
479	160	2	0.5564	2.0084	-2.35	-1.4	
480	160	2	0.5564	0.81004	-1.4221	-1.4	
481	161	1	-1.1128	4.45	-2.35	-1.4	
482	161	2	0.5564	5.4084	-2.35	-1.4	
483	161	2	0.5564	4.21	-1.4221	-1.4	
484	162	1	-1.1128	7.85	-2.35	-1.4	
485	162	2	0.5564	8.8084	-2.35	-1.4	
486	162	2	0.5564	7.61	-1.4221	-1.4	
487	163	1	-1.1128	-9.15	1.05	-1.4	
488	163	2	0.5564	-8.1916	1.05	-1.4	
489	163	2	0.5564	-9.39	1.9779	-1.4	
490	164	1	-1.1128	-5.75	1.05	-1.4	
491	164	2	0.5564	-4.7916	1.05	-1.4	
492	164	2	0.5564	-5.99	1.9779	-1.4	
493	165	1	-1.1128	-2.35	1.05	-1.4	
494	165	2	0.5564	-1.3916	1.05	-1.4	
495	165	2	0.5564	-2.59	1.9779	-1.4	
496	166	1	-1.1128	1.05	1.05	-1.4	
497	166	2	0.5564	2.0084	1.05	-1.4	
498	166	2	0.5564	0.81004	1.9779	-1.4	
499	167	1	-1.1128	4.45	1.05	-1.4	
500	167	2	0.5564	5.4084	1.05	-1.4	
501	167	2	0.5564	4.21	1.9779	-1.4	
502	168	1	-1.1128	7.85	1.05	-1.4	
503	168	2	0.5564	8.8084	1.05	-1.4	
504	168	2	0.5564	7.61	1.9779	-1.4	
505	169	1	-1.1128	-9.15	4.45	-1.4	
506	169	2	0.5564	-8.1916	4.45	-1.4	
507	169	2	0.5564	-9.39	5.3779	-1.4	
508	170	1	-1.1128	-5.75	4.45	-1.4	
509	170	2	0.5564	-4.7916	4.45	-1.4	
510	170	2	0.5564	-5.99	5.3779	-1.4	
511	171	1	-1.1128	-2.35	4.45	-1.4	
512	171	2	0.5564	-1.3916	4.45	-1.4	
513	171	2	0.5564	-2.59	5.3779	-1.4	
514	172	1	-1.1128	1.05	4.45	-1.4	
515	172	2	0.5564	2.0084	4.45	-1.4	
516	172	2	0.5564	0.81004	5.3779	-1.4	
517	173	1	-1.1128	4.45	4.45	-1.4	
518	173	2	0.5564	5.4084	4.45	-1.4	
519	173	2	0.5564	4.21	5.3779	-1.4	
520	174	1	-1.1128	7.85	4.45	-1.4	
521	174	2	0.5564	8.8084	4.45	-1.4	
522	174	2	0.5564	7.61	5.3779	-1.4	
523	175	1	-1.1128	-9.15	7.85	-1.4	
524	175	2	0.5564	-8.1916	7.85	-1.4	
525	175	2	0.5564	-9.39	8.7779	-1.4	
526	176	1	-1.1128	-5.75	7.85	-1.4	
527	176	2	0.5564	-4.7916	7.85	-1.4	
528	176	2	0.5564	-5.99	8.7779	-1.4	
529	177	1	-1.1128	-2.35	7.85	-1.4	
530	177	2	0.5564	-1.3916	7.85	-1.4	
531	177	2	0.5564	-2.59	8.7779	-1.4	
532	178	1	-1.1128	1.05	7.85	-1.4	
533	178	2	0.5564	2.0084	7.85	-1.4	
534	178	2	0.5564	0.81004	8.7779	-1.4	
535	179	1	-1.1128	4.45	7.85	-1.4	
536	179	2	0.5564	5.4084	7.85	-1.4	
537	179	2	0.5564	4.21	8.7779	-1.4	
538	180	1	-1.1128	7.85	7.85	-1.4	
539	180	2	0.5564	8.8084	7.85	-1.4	
540	180	2	0.5564	7.61	8.7779	-1.4	
541	181	1	-1.1128	-9.15	-9.15	2	
542	181	2	0.5564	-8.1916	-9.15	2	
543	181	2	0.5564	-9.39	-8.2221	2	
544	182	1	-1.1128	-5.75	-9.15	2	
545	182	2	0.5564	-4.7916	-9.15	2	
546	182	2	0.5564	-5.99	-8.2221	2	
547	183	1	-1.1128	-2.35	-9.15	2	
548	183	2	0.5564	-1.3916	-9.15	2	
549	183	2	0.5564	-2.59	-8.2221	2	
550	184	1	-1.1128	1.05	-9.15	2	
551	184	2	0.5564	2.0084	-9.15	2	
552	184	2	0.5564	0.81004	-8.2221	2	
553	185	1	-1.1128	4.45	-9.15	2	
554	185	2	0.5564	5.4084	-9.15	2	
555	185	2	0.5564	4.21	-8.2221	2	
556	186	1	-1.1128	7.85	-9.15	2	
557	186	2	0.5564	8.8084	-9.15	2	
558	186	2	0.5564	7.61	-8.2221	2	
559	187	1	-1.1128	-9.15	-5.75	2	
560	187	2	0.5564	-8.1916	-5.75	2	
561	187	2	0.5564	-9.39	-4.8221	2	
562	188	1	-1.1128	-5.75	-5.75	2	
563	188	2	0.5564	-4.7916	-5.75	2	
564	188	2	0.5564	-5.99	-4.8221	2	
565	189	1	-1.1128	-2.35	-5.75	2	
566	189	2	0.5564	-1.3916	-5.75	2	
567	189	2	0.5564	-2.59	-4.8221	2	
568	190	1	-1.1128	1.05	-5.75	2	
569	190	2	0.5564	2.0084	-5.75	2	
570	190	2	0.5564	0.81004	-4.8221	2	
571	191	1	-1.1128	4.45	-5.75	2	
572	191	2	0.5564	5.4084	-5.75	2	
573	191	2	0.5564	4.21	-4.8221	2	
574	192	1	-1.1128	7.85	-5.75	2	
575	192	2	0.5564	8.8084	-5.75	2	
576	192	2	0.5564	7.61	-4.8221	2	
577	193	1	-1.1128	-9.15	-2.35	2	
578	193	2	0.5564	-8.1916	-2.35	2	
579	193	2	0.5564	-9.39	-1.4221	2	
580	194	1	-1.1128	-5.75	-2.35	2	
581	194	2	0.5564	-4.7916	-2.35	2	
582	194	2	0.5564	-5.99	-1.4221	2	
583	195	1	-1.1128	-2.35	-2.35	2	
584	195	2	0.5564	-1.3916	-2.35	2	
585	195	2	0.5564	-2.59	-1.4221	2	
586	196	1	-1.1128	1.05	-2.35	2	
587	196	2	0.5564	2.0084	-2.35	2	
588	196	2	0.5564	0.81004	-1.4221	2	
589	197	1	-1.1128	4.45	-2.35	2	
590	197	2	0.5564	5.4084	-2.35	2	
591	197	2	0.5564	4.21	-1.4221	2	
592	198	1	-1.1128	7.85	-2.35	2	
593	198	2	0.5564	8.8084	-2.35	2	
594	198	2	0.5564	7.61	-1.4221	2	
595	199	1	-1.1128	-9.15	1.05	2	
596	199	2	0.5564	-8.1916	1.05	2	
597	199	2	0.5564	-9.39	1.9779	2	
598	200	1	-1.1128	-5.75	1.05	2	
599	200	2	0.5564	-4.7916	1.05	2	
600	200	2	0.5564	-5.99	1.9779	2	
601	201	1	-1.1128	-2.35	1.05	2	
602	201	2	0.5564	-1.3916	1.05	2	
603	201	2	0.5564	-2.59	1.9779	2	
604	202	1	-1.1128	1.05	1.05	2	
605	202	2	0.5564	2.0084	1.05	2	
606	202	2	0.5564	0.81004	1.9779	2	
607	203	1	-1.1128	4.45	1.05	2	
608	203	2	0.5564	5.4084	1.05	2	
609	203	2	0.5564	4.21	1.9779	2	
610	204	1	-1.1128	7.85	1.05	2	
611	204	2	0.5564	8.8084	1.05	2	
612	204	2	0.5564	7.61	1.9779	2	
613	205	1	-1.1128	-9.15	4.45	2	
614	205	2	0.5564	-8.1916	4.45	2	
615	205	2	0.5564	-9.39	5.3779	2	
616	206	1	-1.1128	-5.75	4.45	2	
617	206	2	0.5564	-4.7916	4.45	2	
618	206	2	0.5564	-5.99	5.3779	2	
619	207	1	-1.1128	-2.35	4.45	2	
620	207	2	0.5564	-1.3916	4.45	2	
621	207	2	0.5564	-2.59	5.3779	2	
622	208	1	-1.1128	1.05	4.45	2	
623	208	2	0.5564	2.0084	4.45	2	
624	208	2	0.5564	0.81004	5.3779	2	
625	209	1	-1.1128	4.45	4.45	2	
626	209	2	0.5564	5.4084	4.45	2	
627	209	2	0.5564	4.21	5.3779	2	
628	210	1	-1.1128	7.85	4.45	2	
629	210	2	0.5564	8.8084	4.45	2	
630	210	2	0.5564	7.61	5.3779	2	
631	211	1	-1.1128	-9.15	7.85	2	
632	211	2	0.5564	-8.1916	7.85	2	
633	211	2	0.5564	-9.39	8.7779	2	
634	212	1	-1.1128	-5.75	7.85	2	
635	212	2	0.5564	-4.7916	7.85	2	
636	212	2	0.5564	-5.99	8.7779	2	
637	213	1	-1.1128	-2.35	7.85	2	
638	213	2	0.5564	-1.3916	7.85	2	
639	213	2	0.5564	-2.59	8.7779	2	
640	214	1	-1.1128	1.05	7.85	2	
641	214	2	0.5564	2.0084	7.85	2	
642	214	2	0.5564	0.81004	8.7779	2	
643	215	1	-1.1128	4.45	7.85	2	
644	215	2	0.5564	5.4084	7.85	2	
645	215	2	0.5564	4.21	8.7779	2	
646	216	1	-1.1128	7.85	7.85	2	
647	216	2	0.5564	8.8084	7.85	2	
648	216	2	0.5564	7.61	8.7779	2	
649	217	1	-1.1128	-9.15	-9.15	5.4	
650	217	2	0.5564	-8.1916	-9.15	5.4	
651	217	2	0.5564	-9.39	-8.2221	5.4	
652	218	1	-1.1128	-5.75	-9.15	5.4	
653	218	2	0.5564	-4.7916	-9.15	5.4	
654	218	2	0.5564	-5.99	-8.2221	5.4	
655	219	1	-1.1128	-2.35	-9.15	5.4	
656	219	2	0.5564	-1.3916	-9.15	5.4	
657	219	2	0.5564	-2.59	-8.2221	5.4	
658	220	1	-1.1128	1.05	-9.15	5.4	
659	220	2	0.5564	2.0084	-9.15	5.4	
660	220	2	0.5564	0.81004	-8.2221	5.4	
661	221	1	-1.1128	4.45	-9.15	5.4	
662	221	2	0.5564	5.4084	-9.15	5.4	
663	221	2	0.5564	4.21	-8.2221	5.4	
664	222	1	-1.1128	7.85	-9.15	5.4	
665	222	2	0.5564	8.8084	-9.15	5.4	
666	222	2	0.5564	7.61	-8.2221	5.4	
667	223	1	-1.1128	-9.15	-5.75	5.4	
668	223	2	0.5564	-8.1916	-5.75	5.4	
669	223	2	0.5564	-9.39	-4.8221	5.4	
670	224	1	-1.1128	-5.75	-5.75	5.4	
671	224	2	0.5564	-4.7916	-5.75	5.4	
672	224	2	0.5564	-5.99	-4.8221	5.4	
673	225	1	-1.1128	-2.35	-5.75	5.4	
674	225	2	0.5564	-1.3916	-5.75	5.4	
675	225	2	0.5564	-2.59	-4.8221	5.4	
676	226	1	-1.1128	1.05	-5.75	5.4	
677	226	2	0.5564	2.0084	-5.75	5.4	
678	226	2	0.5564	0.81004	-4.8221	5.4	
679	227	1	-1.1128	4.45	-5.75	5.4	
680	227	2	0.5564	5.4084	-5.75	5.4	
681	227	2	0.5564	4.21	-4.8221	5.4	
682	228	1	-1.1128	7.85	-5.75	5.4	
683	228	2	0.5564	8.8084	-5.75	5.4	
684	228	2	0.5564	7.61	-4.8221	5.4	
685	229	1	-1.1128	-9.15	-2.35	5.4	
686	229	2	0.5564	-8.1916	-2.35	5.4	
687	229	2	0.5564	-9.39	-1.4221	5.4	
688	230	1	-1.1128	-5.75	-2.35	5.4	
689	230	2	0.5564	-4.7916	-2.35	5.4	
690	230	2	0.5564	-5.99	-1.4221	5.4	
691	231	1	-1.1128	-2.35	-2.35	5.4	
692	231	2	0.5564	-1.3916	-2.35	5.4	
693	231	2	0.5564	-2.59	-1.4221	5.4	
694	232	1	-1.1128	1.05	-2.35	5.4	
695	232	2	0.5564	2.0084	-2.35	5.4	
696	232	2	0.5564	0.81004	-1.4221	5.4	
697	233	1	-1.1128	4.45	-2.35	5.4	
698	233	2	0.5564	5.4084	-2.35	5.4	
699	233	2	0.5564	4.21	-1.4221	5.4	
700	234	1	-1.1128	7.85	-2.35	5.4	
701	234	2	0.5564	8.8084	-2.35	5.4	
702	234	2	0.5564	7.61	-1.4221	5.4	
703	235	1	-1.1128	-9.15	1.05	5.4	
704	235	2	0.5564	-8.1916	1.05	5.4	
705	235	2	0.5564	-9.39	1.9779	5.4	
706	236	1	-1.1128	-5.75	1.05	5.4	
707	236	2	0.5564	-4.7916	1.05	5.4	
708	236	2	0.5564	-5.99	1.9779	5.4	
709	237	1	-1.1128	-2.35	1.05	5.4	
710	237	2	0.5564	-1.3916	1.05	5.4	
711	237	2	0.5564	-2.59	1.9779	5.4	
712	238	1	-1.1128	1.05	1.05	5.4	
713	238	2	0.5564	2.0084	1.05	5.4	
714	238	2	0.5564	0.81004	1.9779	5.4	
715	239	1	-1.1128	4.45	1.05	5.4	
716	239	2	0.5564	5.4084	1.05	5.4	
717	239	2	0.5564	4.21	1.9779	5.4	
718	240	1	-1.1128	7.85	1.05	5.4	
719	240	2	0.5564	8.8084	1.05	5.4	
720	240	2	0.5564	7.61	1.9779	5.4	
721	241	1	-1.1128	-9.15	4.45	5.4	
722	241	2	0.5564	-8.1916	4.45	5.4	
723	241	2	0.5564	-9.39	5.3779	5.4	
724	242	1	-1.1128	-5.75	4.45	5.4	
725	242	2	0.5564	-4.7916	4.45	5.4	
726	242	2	0.5564	-5.99	5.3779	5.4	
727	243	1	-1.1128	-2.35	4.45	5.4	
728	243	2	0.5564	-1.3916	4.45	5.4	
729	243	2	0.5564	-2.59	5.3779	5.4	
730	244	1	-1.1128	1.05	4.45	5.4	
731	244	2	0.5564	2.0084	4.45	5.4	
732	244	2	0.5564	0.81004	5.3779	5.4	
733	245	1	-1.1128	4.45	4.45	5.4	
734	245	2	0.5564	5.4084	4.45	5.4	
735	245	2	0.5564	4.21	5.3779	5.4	
736	246	1	-1.1128	7.85	4.45	5.4	
737	246	2	0.5564	8.8084	4.45	5.4	
738	246	2	0.5564	7.61	5.3779	5.4	
739	247	1	-1.1128	-9.15	7.85	5.4	
740	247	2	0.5564	-8.1916	7.85	5.4	
741	247	2	0.5564	-9.39	8.7779	5.4	
742	248	1	-1.1128	-5.75	7.85	5.4	
743	248	2	0.5564	-4.7916	7.85	5.4	
744	248	2	0.5564	-5.99	8.7779	5.4	
745	249	1	-1.1128	-2.35	7.85	5.4	
746	249	2	0.5564	-1.3916	7.85	5.4	
747	249	2	0.5564	-2.59	8.7779	5.4	
748	250	1	-1.1128	1.05	7.85	5.4	
749	250	2	0.5564	2.0084	7.85	5.4	
750	250	2	0.5564	0.81004	8.7779	5.4	
751	251	1	-1.1128	4.45	7.85	5.4	
752	251	2	0.5564	5.4084	7.85	5.4	
753	251	2	0.5564	4.21	8.7779	5.4	
754	252	1	-1.1128	7.85	7.85	5.4	
755	252	2	0.5564	8.8084	7.85	5.4	
756	252	2	0.5564	7.61	8.7779	5.4	
757	253	1	-1.1128	-9.15	-9.15	8.8	
758	253	2	0.5564	-8.1916	-9.15	8.8	
759	253	2	0.5564	-9.39	-8.2221	8.8	
760	254	1	-1.1128	-5.75	-9.15	8.8	
761	254	2	0.5564	-4.7916	-9.15	8.8	
762	254	2	0.5564	-5.99	-8.2221	8.8	
763	255	1	-1.1128	-2.35	-9.15	8.8	
764	255	2	0.5564	-1.3916	-9.15	8.8	
765	255	2	0.5564	-2.59	-8.2221	8.8	
766	256	1	-1.1128	1.05	-9.15	8.8	
767	256	2	0.5564	2.0084	-9.15	8.8	
768	256	2	0.5564	0.81004	-8.2221	8.8	
769	257	1	-1.1128	4.45	-9.15	8.8	
770	257	2	0.5564	5.4084	-9.15	8.8	
771	257	2	0.5564	4.21	-8.2221	8.8	
772	258	1	-1.1128	7.85	-9.15	8.8	
773	258	2	0.5564	8.8084	-9.15	8.8	
774	258	2	0.5564	7.61	-8.2221	8.8	
775	259	1	-1.1128	-9.15	-5.75	8.8	
776	259	2	0.5564	-8.1916	-5.75	8.8	
777	259	2	0.5564	-9.39	-4.8221	8.8	
778	260	1	-1.1128	-5.75	-5.75	8.8	
779	260	2	0.5564	-4.7916	-5.75	8.8	
780	260	2	0.5564	-5.99	-4.8221	8.8	
781	261	1	-1.1128	-2.35	-5.75	8.8	
782	261	2	0.5564	-1.3916	-5.75	8.8	
783	261	2	0.5564	-2.59	-4.8221	8.8	
784	262	1	-1.1128	1.05	-5.75	8.8	
785	262	2	0.5564	2.0084	-5.75	8.8	
786	262	2	0.5564	0.81004	-4.8221	8.8	
787	263	1	-1.1128	4.45	-5.75	8.8	
788	263	2	0.5564	5.4084	-5.75	8.8	
789	263	2	0.5564	4.21	-4.8221	8.8	
790	264	1	-1.1128	7.85	-5.75	8.8	
791	264	2	0.5564	8.8084	-5.75	8.8	
792	264	2	0.5564	7.61	-4.8221	8.8	
793	265	1	-1.1128	-9.15	-2.35	8.8	
794	265	2	0.5564	-8.1916	-2.35	8.8	
795	265	2	0.5564	-9.39	-1.4221	8.8	
796	266	1	-1.1128	-5.75	-2.35	8.8	
797	266	2	0.5564	-4.7916	-2.35	8.8	
798	266	2	0.5564	-5.99	-1.4221	8.8	
799	267	1	-1.1128	-2.35	-2.35	8.8	
800	267	2	0.5564	-1.3916	-2.35	8.8	
801	267	2	0.5564	-2.59	-1.4221	8.8	
802	268	1	-1.1128	1.05	-2.35	8.8	
803	268	2	0.5564	2.0084	-2.35	8.8	
804	268	2	0.5564	0.81004	-1.4221	8.8	
805	269	1	-1.1128	4.45	-2.35	8.8	
806	269	2	0.5564	5.4084	-2.35	8.8	
807	269	2	0.5564	4.21	-1.4221	8.8	
808	270	1	-1.1128	7.85	-2.35	8.8	
809	270	2	0.5564	8.8084	-2.35	8.8	
810	270	2	0.5564	7.61	-1.4221	8.8	
811	271	1	-1.1128	-9.15	1.05	8.8	
812	271	2	0.5564	-8.1916	1.05	8.8	
813	271	2	0.5564	-9.39	1.9779	8.8	
814	272	1	-1.1128	-5.75	1.05	8.8	
815	272	2	0.5564	-4.7916	1.05	8.8	
816	272	2	0.5564	-5.99	1.9779	8.8	
817	273	1	-1.1128	-2.35	1.05	8.8	
818	273	2	0.5564	-1.3916	1.05	8.8	
819	273	2	0.5564	-2.59	1.9779	8.8	
820	274	1	-1.1128	1.05	1.05	8.8	
821	274	2	0.5564	2.0084	1.05	8.8	
822	274	2	0.5564	0.81004	1.9779	8.8	
823	275	1	-1.1128	4.45	1.05	8.8	
824	275	2	0.5564	5.4084	1.05	8.8	
825	275	2	0.5564	4.21	1.9779	8.8	
826	276	1	-1.1128	7.85	1.05	8.8	
827	276	2	0.5564	8.8084	1.05	8.8	
828	276	2	0.5564	7.61	1.9779	8.8	
829	277	1	-1.1128	-9.15	4.45	8.8	
830	277	2	0.5564	-8.1916	4.45	8.8	
831	277	2	0.5564	-9.39	5.3779	8.8	
832	278	1	-1.1128	-5.75	4.45	8.8	
833	278	2	0.5564	-4.7916	4.45	8.8	
834	278	2	0.5564	-5.99	5.3779	8.8	
835	279	1	-1.1128	-2.35	4.45	8.8	
836	279	2	0.5564	-1.3916	4.45	8.8	
837	279	2	0.5564	-2.59	5.3779	8.8	
838	280	1	-1.1128	1.05	4.45	8.8	
839	280	2	0.5564	2.0084	4.45	8.8	
840	280	2	0.5564	0.81004	5.3779	8.8	
841	281	1	-1.1128	4.45	4.45	8.8	
842	281	2	0.5564	5.4084	4.45	8.8	
843	281	2	0.5564	4.21	5.3779	8.8	
844	282	1	-1.1128	7.85	4.45	8.8	
845	282	2	0.5564	8.8084	4.45	8.8	
846	282	2	0.5564	7.61	5.3779	8.8	
847	283	1	-1.1128	-9.15	7.85	8.8	
848	283	2	0.5564	-8.1916	7.85	8.8	
849	283	2	0.5564	-9.39	8.7779	8.8	
850	284	1	-1.1128	-5.75	7.85	8.8	
851	284	2	0.5564	-4.7916	7.85	8.8	
852	284	2	0.5564	-5.99	8.7779	8.8	
853	285	1	-1.1128	-2.35	7.85	8.8	
854	285	2	0.5564	-1.3916	7.85	8.8	
855	285	2	0.5564	-2.59	8.7779	8.8	
856	286	1	-1.1128	1.05	7.85	8.8	
857	286	2	0.5564	2.0084	7.85	8.8	
858	286	2	0.5564	0.81004	8.7779	8.8	