# System

5325 atoms
3237 bonds
1689 angles
216 dihedrals
42 impropers

5 atom types
9 bond types
3 angle types
2 dihedral types
1 improper types
extra bond per atom 2
extra angle per atom 1
extra special per atom 2

# Membrane

-14.3147      14.3147 xlo xhi
-14.3147      14.3147 ylo yhi
-60  60 zlo zhi

Atoms

1	1	3	0	-13.1218	-13.1218	47.3858	
2	1	3	0	-13.1218	-10.736	45	
3	1	3	0	-10.736	-13.1218	45	
4	1	3	0	-10.736	-10.736	47.3858	
5	1	3	0	-13.1218	-13.1218	52.1573	
6	1	3	0	-13.1218	-10.736	49.7716	
7	1	3	0	-10.736	-13.1218	49.7716	
8	1	3	0	-10.736	-10.736	52.1573	
9	1	3	0	-8.3502	-13.1218	47.3858	
10	1	3	0	-8.3502	-10.736	45	
11	1	3	0	-5.9644	-13.1218	45	
12	1	3	0	-5.9644	-10.736	47.3858	
13	1	3	0	-8.3502	-13.1218	52.1573	
14	1	3	0	-8.3502	-10.736	49.7716	
15	1	3	0	-5.9644	-13.1218	49.7716	
16	1	3	0	-5.9644	-10.736	52.1573	
17	1	3	0	-3.5787	-13.1218	47.3858	
18	1	3	0	-3.5787	-10.736	45	
19	1	3	0	-1.1929	-13.1218	45	
20	1	3	0	-1.1929	-10.736	47.3858	
21	1	3	0	-3.5787	-13.1218	52.1573	
22	1	3	0	-3.5787	-10.736	49.7716	
23	1	3	0	-1.1929	-13.1218	49.7716	
24	1	3	0	-1.1929	-10.736	52.1573	
25	1	3	0	1.1929	-13.1218	47.3858	
26	1	3	0	1.1929	-10.736	45	
27	1	3	0	3.5787	-13.1218	45	
28	1	3	0	3.5787	-10.736	47.3858	
29	1	3	0	1.1929	-13.1218	52.1573	
30	1	3	0	1.1929	-10.736	49.7716	
31	1	3	0	3.5787	-13.1218	49.7716	
32	1	3	0	3.5787	-10.736	52.1573	
33	1	3	0	5.9644	-13.1218	47.3858	
34	1	3	0	5.9644	-10.736	45	
35	1	3	0	8.3502	-13.1218	45	
36	1	3	0	8.3502	-10.736	47.3858	
37	1	3	0	5.9644	-13.1218	52.1573	
38	1	3	0	5.9644	-10.736	49.7716	
39	1	3	0	8.3502	-13.1218	49.7716	
40	1	3	0	8.3502	-10.736	52.1573	
41	1	3	0	10.736	-13.1218	47.3858	
42	1	3	0	10.736	-10.736	45	
43	1	3	0	13.1218	-13.1218	45	
44	1	3	0	13.1218	-10.736	47.3858	
45	1	3	0	10.736	-13.1218	52.1573	
46	1	3	0	10.736	-10.736	49.7716	
47	1	3	0	13.1218	-13.1218	49.7716	
48	1	3	0	13.1218	-10.736	52.1573	
49	1	3	0	-13.1218	-8.3502	47.3858	
50	1	3	0	-13.1218	-5.9644	45	
51	1	3	0	-10.736	-8.3502	45	
52	1	3	0	-10.736	-5.9644	47.3858	
53	1	3	0	-13.1218	-8.3502	52.1573	
54	1	3	0	-13.1218	-5.9644	49.7716	
55	1	3	0	-10.736	-8.3502	49.7716	
56	1	3	0	-10.736	-5.9644	52.1573	
57	1	3	0	-8.3502	-8.3502	47.3858	
58	1	3	0	-8.3502	-5.9644	45	
59	1	3	0	-5.9644	-8.3502	45	
60	1	3	0	-5.9644	-5.9644	47.3858	
61	1	3	0	-8.3502	-8.3502	52.1573	
62	1	3	0	-8.3502	-5.9644	49.7716	
63	1	3	0	-5.9644	-8.3502	49.7716	
64	1	3	0	-5.9644	-5.9644	52.1573	
65	1	3	0	-3.5787	-8.3502	47.3858	
66	1	3	0	-3.5787	-5.9644	45	
67	1	3	0	-1.1929	-8.3502	45	
68	1	3	0	-1.1929	-5.9644	47.3858	
69	1	3	0	-3.5787	-8.3502	52.1573	
70	1	3	0	-3.5787	-5.9644	49.7716	
71	1	3	0	-1.1929	-8.3502	49.7716	
72	1	3	0	-1.1929	-5.9644	52.1573	
73	1	3	0	1.1929	-8.3502	47.3858	
74	1	3	0	1.1929	-5.9644	45	
75	1	3	0	3.5787	-8.3502	45	
76	1	3	0	3.5787	-5.9644	47.3858	
77	1	3	0	1.1929	-8.3502	52.1573	
78	1	3	0	1.1929	-5.9644	49.7716	
79	1	3	0	3.5787	-8.3502	49.7716	
80	1	3	0	3.5787	-5.9644	52.1573	
81	1	3	0	5.9644	-8.3502	47.3858	
82	1	3	0	5.9644	-5.9644	45	
83	1	3	0	8.3502	-8.3502	45	
84	1	3	0	8.3502	-5.9644	47.3858	
85	1	3	0	5.9644	-8.3502	52.1573	
86	1	3	0	5.9644	-5.9644	49.7716	
87	1	3	0	8.3502	-8.3502	49.7716	
88	1	3	0	8.3502	-5.9644	52.1573	
89	1	3	0	10.736	-8.3502	47.3858	
90	1	3	0	10.736	-5.9644	45	
91	1	3	0	13.1218	-8.3502	45	
92	1	3	0	13.1218	-5.9644	47.3858	
93	1	3	0	10.736	-8.3502	52.1573	
94	1	3	0	10.736	-5.9644	49.7716	
95	1	3	0	13.1218	-8.3502	49.7716	
96	1	3	0	13.1218	-5.9644	52.1573	
97	1	3	0	-13.1218	-3.5787	47.3858	
98	1	3	0	-13.1218	-1.1929	45	
99	1	3	0	-10.736	-3.5787	45	
100	1	3	0	-10.736	-1.1929	47.3858	
101	1	3	0	-13.1218	-3.5787	52.1573	
102	1	3	0	-13.1218	-1.1929	49.7716	
103	1	3	0	-10.736	-3.5787	49.7716	
104	1	3	0	-10.736	-1.1929	52.1573	
105	1	3	0	-8.3502	-3.5787	47.3858	
106	1	3	0	-8.3502	-1.1929	45	
107	1	3	0	-5.9644	-3.5787	45	
108	1	3	0	-5.9644	-1.1929	47.3858	
109	1	3	0	-8.3502	-3.5787	52.1573	
110	1	3	0	-8.3502	-1.1929	49.7716	
111	1	3	0	-5.9644	-3.5787	49.7716	
112	1	3	0	-5.9644	-1.1929	52.1573	
113	1	3	0	-3.5787	-3.5787	47.3858	
114	1	3	0	-3.5787	-1.1929	45	
115	1	3	0	-1.1929	-3.5787	45	
116	1	3	0	-1.1929	-1.1929	47.3858	
117	1	3	0	-3.5787	-3.5787	52.1573	
118	1	3	0	-3.5787	-1.1929	49.7716	
119	1	3	0	-1.1929	-3.5787	49.7716	
120	1	3	0	-1.1929	-1.1929	52.1573	
121	1	3	0	1.1929	-3.5787	47.3858	
122	1	3	0	1.1929	-1.1929	45	
123	1	3	0	3.5787	-3.5787	45	
124	1	3	0	3.5787	-1.1929	47.3858	
125	1	3	0	1.1929	-3.5787	52.1573	
126	1	3	0	1.1929	-1.1929	49.7716	
127	1	3	0	3.5787	-3.5787	49.7716	
128	1	3	0	3.5787	-1.1929	52.1573	
129	1	3	0	5.9644	-3.5787	47.3858	
130	1	3	0	5.9644	-1.1929	45	
131	1	3	0	8.3502	-3.5787	45	
132	1	3	0	8.3502	-1.1929	47.3858	
133	1	3	0	5.9644	-3.5787	52.1573	
134	1	3	0	5.9644	-1.1929	49.7716	
135	1	3	0	8.3502	-3.5787	49.7716	
136	1	3	0	8.3502	-1.1929	52.1573	
137	1	3	0	10.736	-3.5787	47.3858	
138	1	3	0	10.736	-1.1929	45	
139	1	3	0	13.1218	-3.5787	45	
140	1	3	0	13.1218	-1.1929	47.3858	
141	1	3	0	10.736	-3.5787	52.1573	
142	1	3	0	10.736	-1.1929	49.7716	
143	1	3	0	13.1218	-3.5787	49.7716	
144	1	3	0	13.1218	-1.1929	52.1573	
145	1	3	0	-13.1218	1.1929	47.3858	
146	1	3	0	-13.1218	3.5787	45	
147	1	3	0	-10.736	1.1929	45	
148	1	3	0	-10.736	3.5787	47.3858	
149	1	3	0	-13.1218	1.1929	52.1573	
150	1	3	0	-13.1218	3.5787	49.7716	
151	1	3	0	-10.736	1.1929	49.7716	
152	1	3	0	-10.736	3.5787	52.1573	
153	1	3	0	-8.3502	1.1929	47.3858	
154	1	3	0	-8.3502	3.5787	45	
155	1	3	0	-5.9644	1.1929	45	
156	1	3	0	-5.9644	3.5787	47.3858	
157	1	3	0	-8.3502	1.1929	52.1573	
158	1	3	0	-8.3502	3.5787	49.7716	
159	1	3	0	-5.9644	1.1929	49.7716	
160	1	3	0	-5.9644	3.5787	52.1573	
161	1	3	0	-3.5787	1.1929	47.3858	
162	1	3	0	-3.5787	3.5787	45	
163	1	3	0	-1.1929	1.1929	45	
164	1	3	0	-1.1929	3.5787	47.3858	
165	1	3	0	-3.5787	1.1929	52.1573	
166	1	3	0	-3.5787	3.5787	49.7716	
167	1	3	0	-1.1929	1.1929	49.7716	
168	1	3	0	-1.1929	3.5787	52.1573	
169	1	3	0	1.1929	1.1929	47.3858	
170	1	3	0	1.1929	3.5787	45	
171	1	3	0	3.5787	1.1929	45	
172	1	3	0	3.5787	3.5787	47.3858	
173	1	3	0	1.1929	1.1929	52.1573	
174	1	3	0	1.1929	3.5787	49.7716	
175	1	3	0	3.5787	1.1929	49.7716	
176	1	3	0	3.5787	3.5787	52.1573	
177	1	3	0	5.9644	1.1929	47.3858	
178	1	3	0	5.9644	3.5787	45	
179	1	3	0	8.3502	1.1929	45	
180	1	3	0	8.3502	3.5787	47.3858	
181	1	3	0	5.9644	1.1929	52.1573	
182	1	3	0	5.9644	3.5787	49.7716	
183	1	3	0	8.3502	1.1929	49.7716	
184	1	3	0	8.3502	3.5787	52.1573	
185	1	3	0	10.736	1.1929	47.3858	
186	1	3	0	10.736	3.5787	45	
187	1	3	0	13.1218	1.1929	45	
188	1	3	0	13.1218	3.5787	47.3858	
189	1	3	0	10.736	1.1929	52.1573	
190	1	3	0	10.736	3.5787	49.7716	
191	1	3	0	13.1218	1.1929	49.7716	
192	1	3	0	13.1218	3.5787	52.1573	
193	1	3	0	-13.1218	5.9644	47.3858	
194	1	3	0	-13.1218	8.3502	45	
195	1	3	0	-10.736	5.9644	45	
196	1	3	0	-10.736	8.3502	47.3858	
197	1	3	0	-13.1218	5.9644	52.1573	
198	1	3	0	-13.1218	8.3502	49.7716	
199	1	3	0	-10.736	5.9644	49.7716	
200	1	3	0	-10.736	8.3502	52.1573	
201	1	3	0	-8.3502	5.9644	47.3858	
202	1	3	0	-8.3502	8.3502	45	
203	1	3	0	-5.9644	5.9644	45	
204	1	3	0	-5.9644	8.3502	47.3858	
205	1	3	0	-8.3502	5.9644	52.1573	
206	1	3	0	-8.3502	8.3502	49.7716	
207	1	3	0	-5.9644	5.9644	49.7716	
208	1	3	0	-5.9644	8.3502	52.1573	
209	1	3	0	-3.5787	5.9644	47.3858	
210	1	3	0	-3.5787	8.3502	45	
211	1	3	0	-1.1929	5.9644	45	
212	1	3	0	-1.1929	8.3502	47.3858	
213	1	3	0	-3.5787	5.9644	52.1573	
214	1	3	0	-3.5787	8.3502	49.7716	
215	1	3	0	-1.1929	5.9644	49.7716	
216	1	3	0	-1.1929	8.3502	52.1573	
217	1	3	0	1.1929	5.9644	47.3858	
218	1	3	0	1.1929	8.3502	45	
219	1	3	0	3.5787	5.9644	45	
220	1	3	0	3.5787	8.3502	47.3858	
221	1	3	0	1.1929	5.9644	52.1573	
222	1	3	0	1.1929	8.3502	49.7716	
223	1	3	0	3.5787	5.9644	49.7716	
224	1	3	0	3.5787	8.3502	52.1573	
225	1	3	0	5.9644	5.9644	47.3858	
226	1	3	0	5.9644	8.3502	45	
227	1	3	0	8.3502	5.9644	45	
228	1	3	0	8.3502	8.3502	47.3858	
229	1	3	0	5.9644	5.9644	52.1573	
230	1	3	0	5.9644	8.3502	49.7716	
231	1	3	0	8.3502	5.9644	49.7716	
232	1	3	0	8.3502	8.3502	52.1573	
233	1	3	0	10.736	5.9644	47.3858	
234	1	3	0	10.736	8.3502	45	
235	1	3	0	13.1218	5.9644	45	
236	1	3	0	13.1218	8.3502	47.3858	
237	1	3	0	10.736	5.9644	52.1573	
238	1	3	0	10.736	8.3502	49.7716	
239	1	3	0	13.1218	5.9644	49.7716	
240	1	3	0	13.1218	8.3502	52.1573	
241	1	3	0	-13.1218	10.736	47.3858	
242	1	3	0	-13.1218	13.1218	45	
243	1	3	0	-10.736	10.736	45	
244	1	3	0	-10.736	13.1218	47.3858	
245	1	3	0	-13.1218	10.736	52.1573	
246	1	3	0	-13.1218	13.1218	49.7716	
247	1	3	0	-10.736	10.736	49.7716	
248	1	3	0	-10.736	13.1218	52.1573	
249	1	3	0	-8.3502	10.736	47.3858	
250	1	3	0	-8.3502	13.1218	45	
251	1	3	0	-5.9644	10.736	45	
252	1	3	0	-5.9644	13.1218	47.3858	
253	1	3	0	-8.3502	10.736	52.1573	
254	1	3	0	-8.3502	13.1218	49.7716	
255	1	3	0	-5.9644	10.736	49.7716	
256	1	3	0	-5.9644	13.1218	52.1573	
257	1	3	0	-3.5787	10.736	47.3858	
258	1	3	0	-3.5787	13.1218	45	
259	1	3	0	-1.1929	10.736	45	
260	1	3	0	-1.1929	13.1218	47.3858	
261	1	3	0	-3.5787	10.736	52.1573	
262	1	3	0	-3.5787	13.1218	49.7716	
263	1	3	0	-1.1929	10.736	49.7716	
264	1	3	0	-1.1929	13.1218	52.1573	
265	1	3	0	1.1929	10.736	47.3858	
266	1	3	0	1.1929	13.1218	45	
267	1	3	0	3.5787	10.736	45	
268	1	3	0	3.5787	13.1218	47.3858	
269	1	3	0	1.1929	10.736	52.1573	
270	1	3	0	1.1929	13.1218	49.7716	
271	1	3	0	3.5787	10.736	49.7716	
272	1	3	0	3.5787	13.1218	52.1573	
273	1	3	0	5.9644	10.736	47.3858	
274	1	3	0	5.9644	13.1218	45	
275	1	3	0	8.3502	10.736	45	
276	1	3	0	8.3502	13.1218	47.3858	
277	1	3	0	5.9644	10.736	52.1573	
278	1	3	0	5.9644	13.1218	49.7716	
279	1	3	0	8.3502	10.736	49.7716	
280	1	3	0	8.3502	13.1218	52.1573	
281	1	3	0	10.736	10.736	47.3858	
282	1	3	0	10.736	13.1218	45	
283	1	3	0	13.1218	10.736	45	
284	1	3	0	13.1218	13.1218	47.3858	
285	1	3	0	10.736	10.736	52.1573	
286	1	3	0	10.736	13.1218	49.7716	
287	1	3	0	13.1218	10.736	49.7716	
288	1	3	0	13.1218	13.1218	52.1573	
289	2	3	0	-13.1218	-13.1218	-47.3858	
290	2	3	0	-13.1218	-10.736	-45	
291	2	3	0	-10.736	-13.1218	-45	
292	2	3	0	-10.736	-10.736	-47.3858	
293	2	3	0	-13.1218	-13.1218	-52.1573	
294	2	3	0	-13.1218	-10.736	-49.7716	
295	2	3	0	-10.736	-13.1218	-49.7716	
296	2	3	0	-10.736	-10.736	-52.1573	
297	2	3	0	-8.3502	-13.1218	-47.3858	
298	2	3	0	-8.3502	-10.736	-45	
299	2	3	0	-5.9644	-13.1218	-45	
300	2	3	0	-5.9644	-10.736	-47.3858	
301	2	3	0	-8.3502	-13.1218	-52.1573	
302	2	3	0	-8.3502	-10.736	-49.7716	
303	2	3	0	-5.9644	-13.1218	-49.7716	
304	2	3	0	-5.9644	-10.736	-52.1573	
305	2	3	0	-3.5787	-13.1218	-47.3858	
306	2	3	0	-3.5787	-10.736	-45	
307	2	3	0	-1.1929	-13.1218	-45	
308	2	3	0	-1.1929	-10.736	-47.3858	
309	2	3	0	-3.5787	-13.1218	-52.1573	
310	2	3	0	-3.5787	-10.736	-49.7716	
311	2	3	0	-1.1929	-13.1218	-49.7716	
312	2	3	0	-1.1929	-10.736	-52.1573	
313	2	3	0	1.1929	-13.1218	-47.3858	
314	2	3	0	1.1929	-10.736	-45	
315	2	3	0	3.5787	-13.1218	-45	
316	2	3	0	3.5787	-10.736	-47.3858	
317	2	3	0	1.1929	-13.1218	-52.1573	
318	2	3	0	1.1929	-10.736	-49.7716	
319	2	3	0	3.5787	-13.1218	-49.7716	
320	2	3	0	3.5787	-10.736	-52.1573	
321	2	3	0	5.9644	-13.1218	-47.3858	
322	2	3	0	5.9644	-10.736	-45	
323	2	3	0	8.3502	-13.1218	-45	
324	2	3	0	8.3502	-10.736	-47.3858	
325	2	3	0	5.9644	-13.1218	-52.1573	
326	2	3	0	5.9644	-10.736	-49.7716	
327	2	3	0	8.3502	-13.1218	-49.7716	
328	2	3	0	8.3502	-10.736	-52.1573	
329	2	3	0	10.736	-13.1218	-47.3858	
330	2	3	0	10.736	-10.736	-45	
331	2	3	0	13.1218	-13.1218	-45	
332	2	3	0	13.1218	-10.736	-47.3858	
333	2	3	0	10.736	-13.1218	-52.1573	
334	2	3	0	10.736	-10.736	-49.7716	
335	2	3	0	13.1218	-13.1218	-49.7716	
336	2	3	0	13.1218	-10.736	-52.1573	
337	2	3	0	-13.1218	-8.3502	-47.3858	
338	2	3	0	-13.1218	-5.9644	-45	
339	2	3	0	-10.736	-8.3502	-45	
340	2	3	0	-10.736	-5.9644	-47.3858	
341	2	3	0	-13.1218	-8.3502	-52.1573	
342	2	3	0	-13.1218	-5.9644	-49.7716	
343	2	3	0	-10.736	-8.3502	-49.7716	
344	2	3	0	-10.736	-5.9644	-52.1573	
345	2	3	0	-8.3502	-8.3502	-47.3858	
346	2	3	0	-8.3502	-5.9644	-45	
347	2	3	0	-5.9644	-8.3502	-45	
348	2	3	0	-5.9644	-5.9644	-47.3858	
349	2	3	0	-8.3502	-8.3502	-52.1573	
350	2	3	0	-8.3502	-5.9644	-49.7716	
351	2	3	0	-5.9644	-8.3502	-49.7716	
352	2	3	0	-5.9644	-5.9644	-52.1573	
353	2	3	0	-3.5787	-8.3502	-47.3858	
354	2	3	0	-3.5787	-5.9644	-45	
355	2	3	0	-1.1929	-8.3502	-45	
356	2	3	0	-1.1929	-5.9644	-47.3858	
357	2	3	0	-3.5787	-8.3502	-52.1573	
358	2	3	0	-3.5787	-5.9644	-49.7716	
359	2	3	0	-1.1929	-8.3502	-49.7716	
360	2	3	0	-1.1929	-5.9644	-52.1573	
361	2	3	0	1.1929	-8.3502	-47.3858	
362	2	3	0	1.1929	-5.9644	-45	
363	2	3	0	3.5787	-8.3502	-45	
364	2	3	0	3.5787	-5.9644	-47.3858	
365	2	3	0	1.1929	-8.3502	-52.1573	
366	2	3	0	1.1929	-5.9644	-49.7716	
367	2	3	0	3.5787	-8.3502	-49.7716	
368	2	3	0	3.5787	-5.9644	-52.1573	
369	2	3	0	5.9644	-8.3502	-47.3858	
370	2	3	0	5.9644	-5.9644	-45	
371	2	3	0	8.3502	-8.3502	-45	
372	2	3	0	8.3502	-5.9644	-47.3858	
373	2	3	0	5.9644	-8.3502	-52.1573	
374	2	3	0	5.9644	-5.9644	-49.7716	
375	2	3	0	8.3502	-8.3502	-49.7716	
376	2	3	0	8.3502	-5.9644	-52.1573	
377	2	3	0	10.736	-8.3502	-47.3858	
378	2	3	0	10.736	-5.9644	-45	
379	2	3	0	13.1218	-8.3502	-45	
380	2	3	0	13.1218	-5.9644	-47.3858	
381	2	3	0	10.736	-8.3502	-52.1573	
382	2	3	0	10.736	-5.9644	-49.7716	
383	2	3	0	13.1218	-8.3502	-49.7716	
384	2	3	0	13.1218	-5.9644	-52.1573	
385	2	3	0	-13.1218	-3.5787	-47.3858	
386	2	3	0	-13.1218	-1.1929	-45	
387	2	3	0	-10.736	-3.5787	-45	
388	2	3	0	-10.736	-1.1929	-47.3858	
389	2	3	0	-13.1218	-3.5787	-52.1573	
390	2	3	0	-13.1218	-1.1929	-49.7716	
391	2	3	0	-10.736	-3.5787	-49.7716	
392	2	3	0	-10.736	-1.1929	-52.1573	
393	2	3	0	-8.3502	-3.5787	-47.3858	
394	2	3	0	-8.3502	-1.1929	-45	
395	2	3	0	-5.9644	-3.5787	-45	
396	2	3	0	-5.9644	-1.1929	-47.3858	
397	2	3	0	-8.3502	-3.5787	-52.1573	
398	2	3	0	-8.3502	-1.1929	-49.7716	
399	2	3	0	-5.9644	-3.5787	-49.7716	
400	2	3	0	-5.9644	-1.1929	-52.1573	
401	2	3	0	-3.5787	-3.5787	-47.3858	
402	2	3	0	-3.5787	-1.1929	-45	
403	2	3	0	-1.1929	-3.5787	-45	
404	2	3	0	-1.1929	-1.1929	-47.3858	
405	2	3	0	-3.5787	-3.5787	-52.1573	
406	2	3	0	-3.5787	-1.1929	-49.7716	
407	2	3	0	-1.1929	-3.5787	-49.7716	
408	2	3	0	-1.1929	-1.1929	-52.1573	
409	2	3	0	1.1929	-3.5787	-47.3858	
410	2	3	0	1.1929	-1.1929	-45	
411	2	3	0	3.5787	-3.5787	-45	
412	2	3	0	3.5787	-1.1929	-47.3858	
413	2	3	0	1.1929	-3.5787	-52.1573	
414	2	3	0	1.1929	-1.1929	-49.7716	
415	2	3	0	3.5787	-3.5787	-49.7716	
416	2	3	0	3.5787	-1.1929	-52.1573	
417	2	3	0	5.9644	-3.5787	-47.3858	
418	2	3	0	5.9644	-1.1929	-45	
419	2	3	0	8.3502	-3.5787	-45	
420	2	3	0	8.3502	-1.1929	-47.3858	
421	2	3	0	5.9644	-3.5787	-52.1573	
422	2	3	0	5.9644	-1.1929	-49.7716	
423	2	3	0	8.3502	-3.5787	-49.7716	
424	2	3	0	8.3502	-1.1929	-52.1573	
425	2	3	0	10.736	-3.5787	-47.3858	
426	2	3	0	10.736	-1.1929	-45	
427	2	3	0	13.1218	-3.5787	-45	
428	2	3	0	13.1218	-1.1929	-47.3858	
429	2	3	0	10.736	-3.5787	-52.1573	
430	2	3	0	10.736	-1.1929	-49.7716	
431	2	3	0	13.1218	-3.5787	-49.7716	
432	2	3	0	13.1218	-1.1929	-52.1573	
433	2	3	0	-13.1218	1.1929	-47.3858	
434	2	3	0	-13.1218	3.5787	-45	
435	2	3	0	-10.736	1.1929	-45	
436	2	3	0	-10.736	3.5787	-47.3858	
437	2	3	0	-13.1218	1.1929	-52.1573	
438	2	3	0	-13.1218	3.5787	-49.7716	
439	2	3	0	-10.736	1.1929	-49.7716	
440	2	3	0	-10.736	3.5787	-52.1573	
441	2	3	0	-8.3502	1.1929	-47.3858	
442	2	3	0	-8.3502	3.5787	-45	
443	2	3	0	-5.9644	1.1929	-45	
444	2	3	0	-5.9644	3.5787	-47.3858	
445	2	3	0	-8.3502	1.1929	-52.1573	
446	2	3	0	-8.3502	3.5787	-49.7716	
447	2	3	0	-5.9644	1.1929	-49.7716	
448	2	3	0	-5.9644	3.5787	-52.1573	
449	2	3	0	-3.5787	1.1929	-47.3858	
450	2	3	0	-3.5787	3.5787	-45	
451	2	3	0	-1.1929	1.1929	-45	
452	2	3	0	-1.1929	3.5787	-47.3858	
453	2	3	0	-3.5787	1.1929	-52.1573	
454	2	3	0	-3.5787	3.5787	-49.7716	
455	2	3	0	-1.1929	1.1929	-49.7716	
456	2	3	0	-1.1929	3.5787	-52.1573	
457	2	3	0	1.1929	1.1929	-47.3858	
458	2	3	0	1.1929	3.5787	-45	
459	2	3	0	3.5787	1.1929	-45	
460	2	3	0	3.5787	3.5787	-47.3858	
461	2	3	0	1.1929	1.1929	-52.1573	
462	2	3	0	1.1929	3.5787	-49.7716	
463	2	3	0	3.5787	1.1929	-49.7716	
464	2	3	0	3.5787	3.5787	-52.1573	
465	2	3	0	5.9644	1.1929	-47.3858	
466	2	3	0	5.9644	3.5787	-45	
467	2	3	0	8.3502	1.1929	-45	
468	2	3	0	8.3502	3.5787	-47.3858	
469	2	3	0	5.9644	1.1929	-52.1573	
470	2	3	0	5.9644	3.5787	-49.7716	
471	2	3	0	8.3502	1.1929	-49.7716	
472	2	3	0	8.3502	3.5787	-52.1573	
473	2	3	0	10.736	1.1929	-47.3858	
474	2	3	0	10.736	3.5787	-45	
475	2	3	0	13.1218	1.1929	-45	
476	2	3	0	13.1218	3.5787	-47.3858	
477	2	3	0	10.736	1.1929	-52.1573	
478	2	3	0	10.736	3.5787	-49.7716	
479	2	3	0	13.1218	1.1929	-49.7716	
480	2	3	0	13.1218	3.5787	-52.1573	
481	2	3	0	-13.1218	5.9644	-47.3858	
482	2	3	0	-13.1218	8.3502	-45	
483	2	3	0	-10.736	5.9644	-45	
484	2	3	0	-10.736	8.3502	-47.3858	
485	2	3	0	-13.1218	5.9644	-52.1573	
486	2	3	0	-13.1218	8.3502	-49.7716	
487	2	3	0	-10.736	5.9644	-49.7716	
488	2	3	0	-10.736	8.3502	-52.1573	
489	2	3	0	-8.3502	5.9644	-47.3858	
490	2	3	0	-8.3502	8.3502	-45	
491	2	3	0	-5.9644	5.9644	-45	
492	2	3	0	-5.9644	8.3502	-47.3858	
493	2	3	0	-8.3502	5.9644	-52.1573	
494	2	3	0	-8.3502	8.3502	-49.7716	
495	2	3	0	-5.9644	5.9644	-49.7716	
496	2	3	0	-5.9644	8.3502	-52.1573	
497	2	3	0	-3.5787	5.9644	-47.3858	
498	2	3	0	-3.5787	8.3502	-45	
499	2	3	0	-1.1929	5.9644	-45	
500	2	3	0	-1.1929	8.3502	-47.3858	
501	2	3	0	-3.5787	5.9644	-52.1573	
502	2	3	0	-3.5787	8.3502	-49.7716	
503	2	3	0	-1.1929	5.9644	-49.7716	
504	2	3	0	-1.1929	8.3502	-52.1573	
505	2	3	0	1.1929	5.9644	-47.3858	
506	2	3	0	1.1929	8.3502	-45	
507	2	3	0	3.5787	5.9644	-45	
508	2	3	0	3.5787	8.3502	-47.3858	
509	2	3	0	1.1929	5.9644	-52.1573	
510	2	3	0	1.1929	8.3502	-49.7716	
511	2	3	0	3.5787	5.9644	-49.7716	
512	2	3	0	3.5787	8.3502	-52.1573	
513	2	3	0	5.9644	5.9644	-47.3858	
514	2	3	0	5.9644	8.3502	-45	
515	2	3	0	8.3502	5.9644	-45	
516	2	3	0	8.3502	8.3502	-47.3858	
517	2	3	0	5.9644	5.9644	-52.1573	
518	2	3	0	5.9644	8.3502	-49.7716	
519	2	3	0	8.3502	5.9644	-49.7716	
520	2	3	0	8.3502	8.3502	-52.1573	
521	2	3	0	10.736	5.9644	-47.3858	
522	2	3	0	10.736	8.3502	-45	
523	2	3	0	13.1218	5.9644	-45	
524	2	3	0	13.1218	8.3502	-47.3858	
525	2	3	0	10.736	5.9644	-52.1573	
526	2	3	0	10.736	8.3502	-49.7716	
527	2	3	0	13.1218	5.9644	-49.7716	
528	2	3	0	13.1218	8.3502	-52.1573	
529	2	3	0	-13.1218	10.736	-47.3858	
530	2	3	0	-13.1218	13.1218	-45	
531	2	3	0	-10.736	10.736	-45	
532	2	3	0	-10.736	13.1218	-47.3858	
533	2	3	0	-13.1218	10.736	-52.1573	
534	2	3	0	-13.1218	13.1218	-49.7716	
535	2	3	0	-10.736	10.736	-49.7716	
536	2	3	0	-10.736	13.1218	-52.1573	
537	2	3	0	-8.3502	10.736	-47.3858	
538	2	3	0	-8.3502	13.1218	-45	
539	2	3	0	-5.9644	10.736	-45	
540	2	3	0	-5.9644	13.1218	-47.3858	
541	2	3	0	-8.3502	10.736	-52.1573	
542	2	3	0	-8.3502	13.1218	-49.7716	
543	2	3	0	-5.9644	10.736	-49.7716	
544	2	3	0	-5.9644	13.1218	-52.1573	
545	2	3	0	-3.5787	10.736	-47.3858	
546	2	3	0	-3.5787	13.1218	-45	
547	2	3	0	-1.1929	10.736	-45	
548	2	3	0	-1.1929	13.1218	-47.3858	
549	2	3	0	-3.5787	10.736	-52.1573	
550	2	3	0	-3.5787	13.1218	-49.7716	
551	2	3	0	-1.1929	10.736	-49.7716	
552	2	3	0	-1.1929	13.1218	-52.1573	
553	2	3	0	1.1929	10.736	-47.3858	
554	2	3	0	1.1929	13.1218	-45	
555	2	3	0	3.5787	10.736	-45	
556	2	3	0	3.5787	13.1218	-47.3858	
557	2	3	0	1.1929	10.736	-52.1573	
558	2	3	0	1.1929	13.1218	-49.7716	
559	2	3	0	3.5787	10.736	-49.7716	
560	2	3	0	3.5787	13.1218	-52.1573	
561	2	3	0	5.9644	10.736	-47.3858	
562	2	3	0	5.9644	13.1218	-45	
563	2	3	0	8.3502	10.736	-45	
564	2	3	0	8.3502	13.1218	-47.3858	
565	2	3	0	5.9644	10.736	-52.1573	
566	2	3	0	5.9644	13.1218	-49.7716	
567	2	3	0	8.3502	10.736	-49.7716	
568	2	3	0	8.3502	13.1218	-52.1573	
569	2	3	0	10.736	10.736	-47.3858	
570	2	3	0	10.736	13.1218	-45	
571	2	3	0	13.1218	10.736	-45	
572	2	3	0	13.1218	13.1218	-47.3858	
573	2	3	0	10.736	10.736	-52.1573	
574	2	3	0	10.736	13.1218	-49.7716	
575	2	3	0	13.1218	10.736	-49.7716	
576	2	3	0	13.1218	13.1218	-52.1573	
577	3	2	-0.005	-1.2106	-0.73306	0.00026544	
578	3	2	-0.005	-1.2401	0.68186	3.8826e-05	
579	3	2	-0.005	-0.02953	1.4149	1.8717e-06	
580	3	2	-0.005	0.029551	-1.4149	0.00033755	
581	3	2	-0.005	1.2401	-0.68189	0.00017491	
582	3	2	-0.005	1.2106	0.73304	0.00010746	
583	3	2	-0.009	2.4457	1.4809	3.3994e-05	
584	3	2	-0.016	3.691	0.80296	-7.6001e-05	
585	3	2	-0.016	3.7213	-0.64819	0.00013041	
586	3	2	-0.009	2.5054	-1.3776	4.8934e-05	
587	3	2	-0.016	2.5409	-2.7951	-0.00018123	
588	3	2	-0.016	1.2993	-3.5469	-0.00060444	
589	3	2	-0.009	0.059657	-2.8585	7.3808e-05	
590	3	2	-0.016	-1.1502	-3.598	2.4279e-05	
591	3	2	-0.009	-2.4457	-1.4809	0.00063186	
592	3	2	-0.016	-2.422	-2.8987	0.0011601	
593	3	2	-0.009	-2.5053	1.3776	-0.0005096	
594	3	2	-0.016	-3.7213	0.64821	-0.00064601	
595	3	2	-0.016	-2.5409	2.795	-0.0011901	
596	3	2	-0.016	2.422	2.8987	3.2597e-05	
597	3	2	-0.016	1.1501	3.598	0.00022189	
598	3	2	-0.009	-0.059648	2.8585	-0.00010092	
599	3	2	-0.016	-1.2993	3.5468	-0.00038884	
600	3	2	-0.116	1.0994	4.9993	0.00088371	
601	3	2	-0.127	-0.11837	5.6674	0.0012225	
602	3	2	-0.116	-1.3071	4.9491	0.00048899	
603	3	1	0.135	2.019	5.6017	0.0011423	
604	3	1	0.135	-0.14134	6.7676	0.0021597	
605	3	1	0.135	-2.2511	5.5125	0.00064808	
606	3	2	-0.116	-4.9395	1.3426	-0.0021567	
607	3	2	-0.127	-4.9673	2.7313	-0.0022576	
608	3	2	-0.116	-3.7798	3.4517	-0.0024281	
609	3	1	0.135	-5.9315	3.2615	-0.0020048	
610	3	1	0.135	-3.8416	4.5493	-0.0039601	
611	3	1	0.135	-5.8995	0.80679	-0.0037907	
612	3	2	-0.016	-3.691	-0.80293	0.00087128	
613	3	2	-0.116	-3.6325	-3.6065	0.0025991	
614	3	2	-0.127	-4.849	-2.9361	0.003083	
615	3	2	-0.116	-4.8792	-1.5475	0.0027592	
616	3	1	0.135	-3.6485	-4.7057	0.0037614	
617	3	1	0.135	-5.7903	-3.5061	0.0035801	
618	3	1	0.135	-5.8607	-1.0522	0.0044871	
619	3	2	-0.116	-1.0995	-4.9993	-0.0015363	
620	3	2	-0.127	0.11825	-5.6675	-0.0024826	
621	3	2	-0.116	1.307	-4.9491	-0.0019275	
622	3	1	0.135	2.251	-5.5126	-0.0027753	
623	3	1	0.135	-2.0191	-5.6016	-0.0023603	
624	3	1	0.135	0.14117	-6.7677	-0.0038221	
625	3	2	-0.116	3.6324	3.6065	-2.1118e-05	
626	3	2	-0.127	4.8489	2.9363	7.6369e-05	
627	3	2	-0.116	4.8792	1.5476	-0.00019735	
628	3	1	0.135	5.7902	3.5063	0.00050102	
629	3	1	0.135	5.8607	1.0524	-0.0006512	
630	3	1	0.135	3.6484	4.7058	-0.00030328	
631	3	2	-0.116	3.7798	-3.4518	0.00013106	
632	3	2	-0.127	4.9673	-2.7313	0.00076497	
633	3	2	-0.116	4.9396	-1.3426	0.00059038	
634	3	1	0.135	3.8416	-4.5494	-0.00011002	
635	3	1	0.135	5.9316	-3.2615	0.0014867	
636	3	1	0.135	5.8995	-0.80677	0.00083419	
637	4	4	-1.1128	-12.6147	-12.6147	-41.6	
638	4	5	0.5564	-11.6563	-12.6147	-41.6	
639	4	5	0.5564	-12.8546	-11.6868	-41.6	
640	5	4	-1.1128	-9.2147	-12.6147	-41.6	
641	5	5	0.5564	-8.2563	-12.6147	-41.6	
642	5	5	0.5564	-9.4546	-11.6868	-41.6	
643	6	4	-1.1128	-5.8147	-12.6147	-41.6	
644	6	5	0.5564	-4.8563	-12.6147	-41.6	
645	6	5	0.5564	-6.0546	-11.6868	-41.6	
646	7	4	-1.1128	-2.4147	-12.6147	-41.6	
647	7	5	0.5564	-1.4563	-12.6147	-41.6	
648	7	5	0.5564	-2.6546	-11.6868	-41.6	
649	8	4	-1.1128	0.98533	-12.6147	-41.6	
650	8	5	0.5564	1.9437	-12.6147	-41.6	
651	8	5	0.5564	0.74537	-11.6868	-41.6	
652	9	4	-1.1128	4.3853	-12.6147	-41.6	
653	9	5	0.5564	5.3437	-12.6147	-41.6	
654	9	5	0.5564	4.1454	-11.6868	-41.6	
655	10	4	-1.1128	7.7853	-12.6147	-41.6	
656	10	5	0.5564	8.7437	-12.6147	-41.6	
657	10	5	0.5564	7.5454	-11.6868	-41.6	
658	11	4	-1.1128	11.1853	-12.6147	-41.6	
659	11	5	0.5564	12.1437	-12.6147	-41.6	
660	11	5	0.5564	10.9454	-11.6868	-41.6	
661	12	4	-1.1128	-12.6147	-9.2147	-41.6	
662	12	5	0.5564	-11.6563	-9.2147	-41.6	
663	12	5	0.5564	-12.8546	-8.2868	-41.6	
664	13	4	-1.1128	-9.2147	-9.2147	-41.6	
665	13	5	0.5564	-8.2563	-9.2147	-41.6	
666	13	5	0.5564	-9.4546	-8.2868	-41.6	
667	14	4	-1.1128	-5.8147	-9.2147	-41.6	
668	14	5	0.5564	-4.8563	-9.2147	-41.6	
669	14	5	0.5564	-6.0546	-8.2868	-41.6	
670	15	4	-1.1128	-2.4147	-9.2147	-41.6	
671	15	5	0.5564	-1.4563	-9.2147	-41.6	
672	15	5	0.5564	-2.6546	-8.2868	-41.6	
673	16	4	-1.1128	0.98533	-9.2147	-41.6	
674	16	5	0.5564	1.9437	-9.2147	-41.6	
675	16	5	0.5564	0.74537	-8.2868	-41.6	
676	17	4	-1.1128	4.3853	-9.2147	-41.6	
677	17	5	0.5564	5.3437	-9.2147	-41.6	
678	17	5	0.5564	4.1454	-8.2868	-41.6	
679	18	4	-1.1128	7.7853	-9.2147	-41.6	
680	18	5	0.5564	8.7437	-9.2147	-41.6	
681	18	5	0.5564	7.5454	-8.2868	-41.6	
682	19	4	-1.1128	11.1853	-9.2147	-41.6	
683	19	5	0.5564	12.1437	-9.2147	-41.6	
684	19	5	0.5564	10.9454	-8.2868	-41.6	
685	20	4	-1.1128	-12.6147	-5.8147	-41.6	
686	20	5	0.5564	-11.6563	-5.8147	-41.6	
687	20	5	0.5564	-12.8546	-4.8868	-41.6	
688	21	4	-1.1128	-9.2147	-5.8147	-41.6	
689	21	5	0.5564	-8.2563	-5.8147	-41.6	
690	21	5	0.5564	-9.4546	-4.8868	-41.6	
691	22	4	-1.1128	-5.8147	-5.8147	-41.6	
692	22	5	0.5564	-4.8563	-5.8147	-41.6	
693	22	5	0.5564	-6.0546	-4.8868	-41.6	
694	23	4	-1.1128	-2.4147	-5.8147	-41.6	
695	23	5	0.5564	-1.4563	-5.8147	-41.6	
696	23	5	0.5564	-2.6546	-4.8868	-41.6	
697	24	4	-1.1128	0.98533	-5.8147	-41.6	
698	24	5	0.5564	1.9437	-5.8147	-41.6	
699	24	5	0.5564	0.74537	-4.8868	-41.6	
700	25	4	-1.1128	4.3853	-5.8147	-41.6	
701	25	5	0.5564	5.3437	-5.8147	-41.6	
702	25	5	0.5564	4.1454	-4.8868	-41.6	
703	26	4	-1.1128	7.7853	-5.8147	-41.6	
704	26	5	0.5564	8.7437	-5.8147	-41.6	
705	26	5	0.5564	7.5454	-4.8868	-41.6	
706	27	4	-1.1128	11.1853	-5.8147	-41.6	
707	27	5	0.5564	12.1437	-5.8147	-41.6	
708	27	5	0.5564	10.9454	-4.8868	-41.6	
709	28	4	-1.1128	-12.6147	-2.4147	-41.6	
710	28	5	0.5564	-11.6563	-2.4147	-41.6	
711	28	5	0.5564	-12.8546	-1.4868	-41.6	
712	29	4	-1.1128	-9.2147	-2.4147	-41.6	
713	29	5	0.5564	-8.2563	-2.4147	-41.6	
714	29	5	0.5564	-9.4546	-1.4868	-41.6	
715	30	4	-1.1128	-5.8147	-2.4147	-41.6	
716	30	5	0.5564	-4.8563	-2.4147	-41.6	
717	30	5	0.5564	-6.0546	-1.4868	-41.6	
718	31	4	-1.1128	-2.4147	-2.4147	-41.6	
719	31	5	0.5564	-1.4563	-2.4147	-41.6	
720	31	5	0.5564	-2.6546	-1.4868	-41.6	
721	32	4	-1.1128	0.98533	-2.4147	-41.6	
722	32	5	0.5564	1.9437	-2.4147	-41.6	
723	32	5	0.5564	0.74537	-1.4868	-41.6	
724	33	4	-1.1128	4.3853	-2.4147	-41.6	
725	33	5	0.5564	5.3437	-2.4147	-41.6	
726	33	5	0.5564	4.1454	-1.4868	-41.6	
727	34	4	-1.1128	7.7853	-2.4147	-41.6	
728	34	5	0.5564	8.7437	-2.4147	-41.6	
729	34	5	0.5564	7.5454	-1.4868	-41.6	
730	35	4	-1.1128	11.1853	-2.4147	-41.6	
731	35	5	0.5564	12.1437	-2.4147	-41.6	
732	35	5	0.5564	10.9454	-1.4868	-41.6	
733	36	4	-1.1128	-12.6147	0.98533	-41.6	
734	36	5	0.5564	-11.6563	0.98533	-41.6	
735	36	5	0.5564	-12.8546	1.9132	-41.6	
736	37	4	-1.1128	-9.2147	0.98533	-41.6	
737	37	5	0.5564	-8.2563	0.98533	-41.6	
738	37	5	0.5564	-9.4546	1.9132	-41.6	
739	38	4	-1.1128	-5.8147	0.98533	-41.6	
740	38	5	0.5564	-4.8563	0.98533	-41.6	
741	38	5	0.5564	-6.0546	1.9132	-41.6	
742	39	4	-1.1128	-2.4147	0.98533	-41.6	
743	39	5	0.5564	-1.4563	0.98533	-41.6	
744	39	5	0.5564	-2.6546	1.9132	-41.6	
745	40	4	-1.1128	0.98533	0.98533	-41.6	
746	40	5	0.5564	1.9437	0.98533	-41.6	
747	40	5	0.5564	0.74537	1.9132	-41.6	
748	41	4	-1.1128	4.3853	0.98533	-41.6	
749	41	5	0.5564	5.3437	0.98533	-41.6	
750	41	5	0.5564	4.1454	1.9132	-41.6	
751	42	4	-1.1128	7.7853	0.98533	-41.6	
752	42	5	0.5564	8.7437	0.98533	-41.6	
753	42	5	0.5564	7.5454	1.9132	-41.6	
754	43	4	-1.1128	11.1853	0.98533	-41.6	
755	43	5	0.5564	12.1437	0.98533	-41.6	
756	43	5	0.5564	10.9454	1.9132	-41.6	
757	44	4	-1.1128	-12.6147	4.3853	-41.6	
758	44	5	0.5564	-11.6563	4.3853	-41.6	
759	44	5	0.5564	-12.8546	5.3132	-41.6	
760	45	4	-1.1128	-9.2147	4.3853	-41.6	
761	45	5	0.5564	-8.2563	4.3853	-41.6	
762	45	5	0.5564	-9.4546	5.3132	-41.6	
763	46	4	-1.1128	-5.8147	4.3853	-41.6	
764	46	5	0.5564	-4.8563	4.3853	-41.6	
765	46	5	0.5564	-6.0546	5.3132	-41.6	
766	47	4	-1.1128	-2.4147	4.3853	-41.6	
767	47	5	0.5564	-1.4563	4.3853	-41.6	
768	47	5	0.5564	-2.6546	5.3132	-41.6	
769	48	4	-1.1128	0.98533	4.3853	-41.6	
770	48	5	0.5564	1.9437	4.3853	-41.6	
771	48	5	0.5564	0.74537	5.3132	-41.6	
772	49	4	-1.1128	4.3853	4.3853	-41.6	
773	49	5	0.5564	5.3437	4.3853	-41.6	
774	49	5	0.5564	4.1454	5.3132	-41.6	
775	50	4	-1.1128	7.7853	4.3853	-41.6	
776	50	5	0.5564	8.7437	4.3853	-41.6	
777	50	5	0.5564	7.5454	5.3132	-41.6	
778	51	4	-1.1128	11.1853	4.3853	-41.6	
779	51	5	0.5564	12.1437	4.3853	-41.6	
780	51	5	0.5564	10.9454	5.3132	-41.6	
781	52	4	-1.1128	-12.6147	7.7853	-41.6	
782	52	5	0.5564	-11.6563	7.7853	-41.6	
783	52	5	0.5564	-12.8546	8.7132	-41.6	
784	53	4	-1.1128	-9.2147	7.7853	-41.6	
785	53	5	0.5564	-8.2563	7.7853	-41.6	
786	53	5	0.5564	-9.4546	8.7132	-41.6	
787	54	4	-1.1128	-5.8147	7.7853	-41.6	
788	54	5	0.5564	-4.8563	7.7853	-41.6	
789	54	5	0.5564	-6.0546	8.7132	-41.6	
790	55	4	-1.1128	-2.4147	7.7853	-41.6	
791	55	5	0.5564	-1.4563	7.7853	-41.6	
792	55	5	0.5564	-2.6546	8.7132	-41.6	
793	56	4	-1.1128	0.98533	7.7853	-41.6	
794	56	5	0.5564	1.9437	7.7853	-41.6	
795	56	5	0.5564	0.74537	8.7132	-41.6	
796	57	4	-1.1128	4.3853	7.7853	-41.6	
797	57	5	0.5564	5.3437	7.7853	-41.6	
798	57	5	0.5564	4.1454	8.7132	-41.6	
799	58	4	-1.1128	7.7853	7.7853	-41.6	
800	58	5	0.5564	8.7437	7.7853	-41.6	
801	58	5	0.5564	7.5454	8.7132	-41.6	
802	59	4	-1.1128	11.1853	7.7853	-41.6	
803	59	5	0.5564	12.1437	7.7853	-41.6	
804	59	5	0.5564	10.9454	8.7132	-41.6	
805	60	4	-1.1128	-12.6147	11.1853	-41.6	
806	60	5	0.5564	-11.6563	11.1853	-41.6	
807	60	5	0.5564	-12.8546	12.1132	-41.6	
808	61	4	-1.1128	-9.2147	11.1853	-41.6	
809	61	5	0.5564	-8.2563	11.1853	-41.6	
810	61	5	0.5564	-9.4546	12.1132	-41.6	
811	62	4	-1.1128	-5.8147	11.1853	-41.6	
812	62	5	0.5564	-4.8563	11.1853	-41.6	
813	62	5	0.5564	-6.0546	12.1132	-41.6	
814	63	4	-1.1128	-2.4147	11.1853	-41.6	
815	63	5	0.5564	-1.4563	11.1853	-41.6	
816	63	5	0.5564	-2.6546	12.1132	-41.6	
817	64	4	-1.1128	0.98533	11.1853	-41.6	
818	64	5	0.5564	1.9437	11.1853	-41.6	
819	64	5	0.5564	0.74537	12.1132	-41.6	
820	65	4	-1.1128	4.3853	11.1853	-41.6	
821	65	5	0.5564	5.3437	11.1853	-41.6	
822	65	5	0.5564	4.1454	12.1132	-41.6	
823	66	4	-1.1128	7.7853	11.1853	-41.6	
824	66	5	0.5564	8.7437	11.1853	-41.6	
825	66	5	0.5564	7.5454	12.1132	-41.6	
826	67	4	-1.1128	11.1853	11.1853	-41.6	
827	67	5	0.5564	12.1437	11.1853	-41.6	
828	67	5	0.5564	10.9454	12.1132	-41.6	
829	68	4	-1.1128	-12.6147	-12.6147	-38.2	
830	68	5	0.5564	-11.6563	-12.6147	-38.2	
831	68	5	0.5564	-12.8546	-11.6868	-38.2	
832	69	4	-1.1128	-9.2147	-12.6147	-38.2	
833	69	5	0.5564	-8.2563	-12.6147	-38.2	
834	69	5	0.5564	-9.4546	-11.6868	-38.2	
835	70	4	-1.1128	-5.8147	-12.6147	-38.2	
836	70	5	0.5564	-4.8563	-12.6147	-38.2	
837	70	5	0.5564	-6.0546	-11.6868	-38.2	
838	71	4	-1.1128	-2.4147	-12.6147	-38.2	
839	71	5	0.5564	-1.4563	-12.6147	-38.2	