# LAMMPS data file 
# Created using atb2lammps 
# https://github.com/simongravelle/atb2lammps

9 atoms
8 bonds
13 angles
12 dihedrals

5 atom types
5 bond types
6 angle types
3 dihedral types

-25 25 xlo xhi
-25 25 ylo yhi
-25 25 zlo zhi

Atoms

1 1 3 0.416 -1.9369905 -0.2081817 0.004060286 
2 1 5 -0.682 -1.1279469 0.32786062 -0.011387526 
3 1 4 0.372 -0.016757166 -0.57429594 0.000706397 
4 1 2 -0.029 -0.041197225 -1.2312465 -0.88292974 
5 1 2 -0.029 -0.049556132 -1.2218958 0.8906665 
6 1 1 -0.285 1.2618924 0.24768503 0.0008714883 
7 1 2 0.079 2.138478 -0.40970457 -0.008553268 
8 1 2 0.079 1.3137746 0.88206637 0.8929216 
9 1 2 0.079 1.3044562 0.8928912 -0.88396233 

Bonds

1 5 1 2 
2 2 2 3 
3 4 3 4 
4 4 3 5 
5 3 3 6 
6 1 6 7 
7 1 6 8 
8 1 6 9 

Angles

1 1 1 2 3 
2 3 2 3 4 
3 3 2 3 5 
4 2 2 3 6 
5 4 4 3 5 
6 6 4 3 6 
7 6 5 3 6 
8 6 3 6 7 
9 6 3 6 8 
10 6 3 6 9 
11 5 7 6 8 
12 5 7 6 9 
13 5 8 6 9 

Dihedrals

1 3 1 2 3 4 
2 3 1 2 3 5 
3 1 1 2 3 6 
4 2 2 3 6 7 
5 3 2 3 6 8 
6 3 2 3 6 9 
7 3 4 3 6 7 
8 3 4 3 6 8 
9 3 4 3 6 9 
10 3 5 3 6 7 
11 3 5 3 6 8 
12 3 5 3 6 9 
