LAMMPS data file || GO particle with 3 water molecules

272 atoms
15 atom types
336 bonds
8 bond types
616 angles
14 angle types
1188 dihedrals
15 dihedral types
147 impropers
1 improper types

-2.7199999999999999e+01 2.7199999999999999e+01 xlo xhi
-2.7199999999999999e+01 2.7199999999999999e+01 ylo yhi
-2.7199999999999999e+01 2.7199999999999999e+01 zlo zhi

Masses

1 15.9994
2 1.008
3 12.011
4 1.008
5 12.011
6 15.999
7 1.008
8 15.999
9 15.999
10 12.011
11 15.999
12 15.999
13 12.011
14 12.011
15 15.999

Pair Coeffs # lj/cut/tip4p/long

1 0.1852 3.1589
2 0 0
3 0.07 3.55
4 0.03 2.42
5 0.066 3.5
6 0.17 3.12
7 0 0
8 0.14 2.9
9 0.17 3.07
10 0.105 3.75
11 0.21 2.96
12 0.17 3
13 0.07 3.55
14 0.105 3.75
15 0.21 2.96

Bond Coeffs # harmonic

1 0 0.9572
2 268 1.529
3 317 1.51
4 320 1.41
5 367 1.08
6 450 1.364
7 469 1.4
8 553 0.945

Angle Coeffs # harmonic

1 0 104.52
2 35 113
3 35 120
4 40 109.5
5 50 109.5
6 55 108.5
7 58.35 112.7
8 63 114
9 63 120
10 70 120
11 70 123
12 70 130
13 70 124
14 35 117

Dihedral Coeffs # opls

1 -4.344 -1.714 0 0
2 -1.552 0 0 0
3 -0.9 0 0 0
4 -0.356 -0.174 0.492 0
5 0 -8 0 0
6 0 0 0 0
7 0 0 0.318 0
8 0 0 0.366 0
9 0 0 0.468 0
10 0 1.682 0 0
11 0 7.25 0 0
12 1.3 -0.05 0.2 0
13 1.711 -0.5 0.663 0
14 2.817 -0.169 0.543 0
15 9.508 0 0 0

Improper Coeffs # harmonic

1 5 180

Atoms # full

187 1 4 1.1500000000000000e-01 -8.9861345595669633e+00 -1.0545677452176026e+01 -3.2814040147516463e+00 0 0 0
207 1 7 4.3500000000000000e-01 -4.8694317053603573e+00 -1.1592718474516280e+01 -3.7569110224440077e+00 0 0 0
1 1 3 -1.1500000000000000e-01 -8.2209216811447270e+00 -1.0146370057689548e+01 -2.7013268428691890e+00 0 0 0
2 1 3 -1.1500000000000000e-01 -6.8499941798383617e+00 -1.0379604719533710e+01 -2.9846469226184218e+00 0 0 0
4 1 13 1.4999999999999999e-01 -4.5078993572857149e+00 -1.0110789838789422e+01 -2.6037474765201103e+00 0 0 0
6 1 3 -1.1500000000000000e-01 -2.1188679942710000e+00 -9.8499431170377498e+00 -2.2043225884219830e+00 0 0 0
171 1 4 1.1500000000000000e-01 -6.6894909333624062e+00 -1.1434337837917523e+01 -3.2743066177380080e+00 0 0 0
172 1 9 -5.8499999999999996e-01 -4.2330822473628151e+00 -1.1341175120731615e+01 -3.1544317090003560e+00 0 0 0
173 1 4 1.1500000000000000e-01 -1.9361538145598036e+00 -1.0905398789815310e+01 -2.5103988777409940e+00 0 0 0
3 1 3 0.0000000000000000e+00 -5.8450617825357494e+00 -9.6997339301095167e+00 -2.3429626915471147e+00 0 0 0
5 1 3 0.0000000000000000e+00 -3.4381937565374736e+00 -9.4244732124884099e+00 -1.9659611897078169e+00 0 0 0
7 1 3 0.0000000000000000e+00 -1.1300880555404693e+00 -9.3849380887561509e+00 -1.2773763120463550e+00 0 0 0
196 1 4 1.1500000000000000e-01 -1.0622525171210013e+01 -3.3235354876922568e-01 1.5202428273838206e-01 0 0 0
52 1 13 1.4999999999999999e-01 -9.1092556663638131e+00 -4.8647651878244478e+00 -5.7786144887153357e-01 0 0 0
69 1 3 -1.1500000000000000e-01 -9.4172268939615211e+00 -1.8937856471338077e+00 -3.8371023465948639e-01 0 0 0
188 1 4 1.1500000000000000e-01 -9.4593243171697967e+00 -8.4926399657456724e+00 -2.0356698372702162e+00 0 0 0
191 1 4 1.1500000000000000e-01 -9.6915966583772253e+00 -6.9681612192202280e+00 -8.4336968180276661e-01 0 0 0
192 1 9 -5.8499999999999996e-01 -1.0268071125427243e+01 -4.5736904375483771e+00 1.1526461202580723e-01 0 0 0
195 1 4 1.1500000000000000e-01 -1.0371440255130448e+01 -2.4317834316386975e+00 -6.0542073639649563e-01 0 0 0
214 1 7 4.3500000000000000e-01 -1.0272112048484200e+01 -3.8945040090520839e+00 7.9153769175671684e-01 0 0 0
86 1 3 -1.1500000000000000e-01 -9.7233465227142837e+00 -7.8073516801123888e-01 4.4568932162985953e-01 0 0 0
261 1 7 4.1799999999999998e-01 -1.1726934431258393e+00 -8.7460286298660321e+00 1.1527664750232500e+00 0 0 0
23 1 3 0.0000000000000000e+00 -2.6435148092985714e+00 -7.4317645818358988e+00 -7.7391329217139537e-01 0 0 0
24 1 3 0.0000000000000000e+00 -1.3165461640109144e+00 -7.9897456494703709e+00 -8.9773738459961472e-01 0 0 0
35 1 3 -1.1500000000000000e-01 -8.8461522566129620e+00 -6.2756629558335044e+00 -6.9881548210892375e-01 0 0 0
25 1 5 2.6500000000000001e-01 -2.9995832293932356e-01 -7.3756797712158484e+00 2.9374019461546122e-02 0 0 0
36 1 3 0.0000000000000000e+00 -7.6269943376024907e+00 -6.6991270912690055e+00 -1.1710213971437280e+00 0 0 0
88 1 3 0.0000000000000000e+00 -7.2786821880865293e+00 -3.9205048995456526e-01 5.4609669184836718e-01 0 0 0
38 1 3 0.0000000000000000e+00 -5.2000132640915329e+00 -6.3105700146149228e+00 -9.0888050955313870e-01 0 0 0
37 1 3 0.0000000000000000e+00 -6.5470308667546497e+00 -5.8971464081685152e+00 -5.9072760180873751e-01 0 0 0
39 1 3 0.0000000000000000e+00 -4.1448110692561126e+00 -5.5415260432524240e+00 -3.1097897272296110e-01 0 0 0
40 1 3 0.0000000000000000e+00 -2.8459711268436516e+00 -6.0391807596836768e+00 -4.2501333618432552e-01 0 0 0
90 1 3 0.0000000000000000e+00 -4.9408826767718272e+00 -6.9674565660676160e-02 4.7499484556398935e-01 0 0 0
18 1 3 -1.1500000000000000e-01 -8.4524981878074197e+00 -8.7542133987097639e+00 -2.2946332903208986e+00 0 0 0
41 1 3 0.0000000000000000e+00 -1.8193534414749584e+00 -5.2665276926513256e+00 2.1638593213304769e-01 0 0 0
53 1 3 0.0000000000000000e+00 -8.0481875192310053e+00 -3.9474953630439420e+00 -3.3096920579881051e-01 0 0 0
55 1 3 0.0000000000000000e+00 -5.6710905782414436e+00 -3.6854744987339370e+00 -9.7756586852721539e-02 0 0 0
42 1 3 0.0000000000000000e+00 -4.4386314669758570e-01 -5.8434636450306039e+00 1.5481777289224036e-01 0 0 0
59 1 3 0.0000000000000000e+00 -9.1501471132598222e-01 -3.0151566401158703e+00 5.1319152085658315e-01 0 0 0
70 1 3 0.0000000000000000e+00 -8.2798408777306847e+00 -2.5657688630130933e+00 5.4590870886156502e-02 0 0 0
260 1 6 -6.8300000000000005e-01 -5.5298841268779453e-01 -8.0405885869181439e+00 1.2548935002846893e+00 0 0 0
72 1 3 0.0000000000000000e+00 -5.8243776582208415e+00 -2.3268970868479641e+00 3.2015758667822264e-01 0 0 0
71 1 3 0.0000000000000000e+00 -7.1329077031980113e+00 -1.7513106196258548e+00 4.3584218724025797e-01 0 0 0
73 1 3 0.0000000000000000e+00 -4.7419734211542570e+00 -1.4135208663753152e+00 1.5510163209673994e-01 0 0 0
76 1 3 0.0000000000000000e+00 -1.0988471311270698e+00 -1.6205234088426419e+00 4.6777077925071708e-01 0 0 0
75 1 3 0.0000000000000000e+00 -2.3372148338226202e+00 -1.0977224477638652e+00 6.1611864739909844e-02 0 0 0
58 1 3 0.0000000000000000e+00 -2.0341253363273690e+00 -3.8953664822969136e+00 4.9270964851823373e-01 0 0 0
74 1 3 0.0000000000000000e+00 -3.4358906120684152e+00 -1.9308992007252539e+00 2.0814040395126382e-01 0 0 0
54 1 3 0.0000000000000000e+00 -6.7793366259886083e+00 -4.5807260584393035e+00 -1.3276109722926480e-01 0 0 0
56 1 3 0.0000000000000000e+00 -4.3150479855062960e+00 -4.1758476655733414e+00 4.8158238869859329e-02 0 0 0
57 1 3 0.0000000000000000e+00 -3.2397637083611386e+00 -3.3091593636325363e+00 1.0783055204590208e-01 0 0 0
19 1 3 0.0000000000000000e+00 -7.4169766482837005e+00 -8.0149600726261419e+00 -1.6303514132913823e+00 0 0 0
20 1 3 0.0000000000000000e+00 -6.0616775032253987e+00 -8.3668289168425716e+00 -1.9621636654558281e+00 0 0 0
21 1 3 0.0000000000000000e+00 -4.9889690805692988e+00 -7.6852238682075988e+00 -1.3565286044818134e+00 0 0 0
22 1 3 0.0000000000000000e+00 -3.6559702993840508e+00 -8.1319392130400825e+00 -1.4896026801279858e+00 0 0 0
103 1 3 -1.1500000000000000e-01 -1.0031207714202580e+01 1.9371865176371128e+00 1.1249405410332527e+00 0 0 0
120 1 3 -1.1500000000000000e-01 -1.0185469100241045e+01 3.3586977865611019e+00 9.2651706621081353e-01 0 0 0
137 1 13 1.4999999999999999e-01 -1.0379869769769464e+01 6.4140213688403351e+00 5.0251037185074499e-01 0 0 0
199 1 4 1.1500000000000000e-01 -1.0950037363770754e+01 1.4438102865406259e+00 9.7814015456938075e-01 0 0 0
200 1 4 1.1500000000000000e-01 -1.1173608320044108e+01 3.7617139508115449e+00 1.0799770864573521e+00 0 0 0
203 1 9 -5.8499999999999996e-01 -1.1542356420121413e+01 5.8222982965852603e+00 3.3821475033942068e-02 0 0 0
216 1 7 4.3500000000000000e-01 -1.1342710346941601e+01 4.9635704584361759e+00 -2.9501186844074140e-01 0 0 0
154 1 3 -1.1500000000000000e-01 -1.0659943176597439e+01 7.7056101410124320e+00 9.5379391241605671e-01 0 0 0
204 1 4 1.1500000000000000e-01 -1.1392211568733854e+01 8.3884554703843417e+00 5.2017520047002441e-01 0 0 0
138 1 3 0.0000000000000000e+00 -9.4147824442202559e+00 5.6438833953922583e+00 1.2547904196079156e+00 0 0 0
155 1 3 -1.1500000000000000e-01 -9.6730430483595082e+00 8.5160054803194960e+00 1.6581022702777988e+00 0 0 0
121 1 3 0.0000000000000000e+00 -9.1171388723812079e+00 4.2478236975930450e+00 9.6312099898059178e-01 0 0 0
211 1 7 4.3500000000000000e-01 -2.8867181509229822e+00 1.0526848132287549e+01 3.5559742127055278e+00 0 0 0
89 1 3 0.0000000000000000e+00 -6.1782499010072129e+00 3.9517670787857051e-01 9.0308394098949962e-01 0 0 0
91 1 3 0.0000000000000000e+00 -3.8133787170580140e+00 7.7300794657325811e-01 6.8107479077235100e-01 0 0 0
92 1 3 0.0000000000000000e+00 -2.4972424291741273e+00 2.5875643593311370e-01 2.8541676163751206e-01 0 0 0
93 1 3 0.0000000000000000e+00 -1.3736717802781055e+00 1.0703292254414558e+00 5.5973821144553915e-01 0 0 0
104 1 3 0.0000000000000000e+00 -8.7525130247114618e+00 1.3963560719872863e+00 9.6380423835807871e-01 0 0 0
105 1 3 0.0000000000000000e+00 -7.6747544097098785e+00 2.2597498968484491e+00 1.3055735582680592e+00 0 0 0
106 1 3 0.0000000000000000e+00 -6.4130299407559592e+00 1.8096027260847705e+00 1.0522018777611515e+00 0 0 0
107 1 3 0.0000000000000000e+00 -5.2868831750802228e+00 2.6154055336917481e+00 1.4451177022609654e+00 0 0 0
108 1 3 0.0000000000000000e+00 -4.0038909750012408e+00 2.1174485363039466e+00 9.1512566531729900e-01 0 0 0
109 1 3 0.0000000000000000e+00 -2.8590242787526394e+00 2.9080806288872991e+00 1.1658254031865865e+00 0 0 0
110 1 3 0.0000000000000000e+00 -1.5997778954221324e+00 2.4744947808544375e+00 7.2430562575682167e-01 0 0 0
122 1 3 0.0000000000000000e+00 -7.8902083039133837e+00 3.6574341237465839e+00 1.3253246676400809e+00 0 0 0
123 1 3 0.0000000000000000e+00 -6.7596416063349931e+00 4.5092659439841620e+00 1.3643221706190416e+00 0 0 0
124 1 3 0.0000000000000000e+00 -5.4713916831009550e+00 3.9867330814876389e+00 1.6198269559431442e+00 0 0 0
125 1 3 0.0000000000000000e+00 -4.3381485094570245e+00 4.8428489706859885e+00 1.5784079608475541e+00 0 0 0
126 1 3 0.0000000000000000e+00 -3.0453686394554462e+00 4.2535010058977658e+00 1.5385018373125299e+00 0 0 0
127 1 3 0.0000000000000000e+00 -1.9437869139727826e+00 5.1362256831670567e+00 1.3749582611358278e+00 0 0 0
139 1 3 0.0000000000000000e+00 -8.2717326429883133e+00 6.4187571142067990e+00 1.7367273064914350e+00 0 0 0
140 1 3 0.0000000000000000e+00 -6.9548961523317079e+00 5.8490433266628958e+00 1.7476222519505114e+00 0 0 0
141 1 3 0.0000000000000000e+00 -5.8470140403796380e+00 6.7371438320652874e+00 1.8115819321176518e+00 0 0 0
142 1 3 0.0000000000000000e+00 -4.5051412659738697e+00 6.2374541176861982e+00 1.9150198743992750e+00 0 0 0
143 1 3 0.0000000000000000e+00 -3.4204508800050992e+00 7.1254866393512470e+00 1.7927848618041946e+00 0 0 0
144 1 3 0.0000000000000000e+00 -2.1145351210654995e+00 6.5333937312677941e+00 1.7864700959753379e+00 0 0 0
145 1 3 0.0000000000000000e+00 -1.0493619221053869e+00 7.4548539907704869e+00 1.5668132269149391e+00 0 0 0
156 1 3 0.0000000000000000e+00 -8.3952036052375529e+00 7.8815299585899945e+00 1.7262567207996959e+00 0 0 0
128 1 3 0.0000000000000000e+00 -6.2561646939848159e-01 4.5715796298540150e+00 1.4494878138119545e+00 0 0 0
158 1 3 0.0000000000000000e+00 -6.0594287793153345e+00 8.0758895146003109e+00 2.2938417391264321e+00 0 0 0
111 1 3 0.0000000000000000e+00 -5.0709659396433615e-01 3.2366410311057323e+00 1.0764346130352824e+00 0 0 0
160 1 3 0.0000000000000000e+00 -3.6125078841864084e+00 8.5204961757037285e+00 2.1690690674837776e+00 0 0 0
94 1 3 0.0000000000000000e+00 -1.0317323755658318e-01 5.9564160488137896e-01 3.2581896174708197e-01 0 0 0
162 1 3 0.0000000000000000e+00 -1.1632608000786999e+00 8.7920292108744746e+00 1.9817737089186409e+00 0 0 0
157 1 13 1.4999999999999999e-01 -7.3634396648022520e+00 8.6551912410985246e+00 2.3243295168681026e+00 0 0 0
159 1 3 -1.1500000000000000e-01 -4.9549939484717225e+00 8.9617338708581702e+00 2.1504811745952659e+00 0 0 0
179 1 4 1.1500000000000000e-01 -9.6211447069964677e+00 9.6260296911549261e+00 1.4739039275348289e+00 0 0 0
180 1 9 -5.8499999999999996e-01 -7.5176293154642133e+00 1.0005850768177062e+01 2.5310283874338748e+00 0 0 0
163 1 3 -1.1500000000000000e-01 -5.9268696726025596e-02 9.6466181490525518e+00 1.7367601188148036e+00 0 0 0
183 1 4 1.1500000000000000e-01 -3.0220934941537297e-01 1.0741874171158402e+01 1.7212255151044449e+00 0 0 0
181 1 4 1.1500000000000000e-01 -5.1306814267520195e+00 9.9541830332757097e+00 2.3484397800459473e+00 0 0 0
182 1 9 -5.8499999999999996e-01 -2.5847276804594146e+00 1.0657217641378253e+01 2.6732659538152674e+00 0 0 0
161 1 13 1.4999999999999999e-01 -2.4653451580359405e+00 9.4205428434528464e+00 2.0991534158209970e+00 0 0 0
210 1 7 4.3500000000000000e-01 -8.3567800366041904e+00 1.0322814051827104e+01 2.2351987640200996e+00 0 0 0
87 1 3 0.0000000000000000e+00 -8.6589927424642372e+00 4.2556549279102046e-02 8.3910079851943831e-01 0 0 0
209 1 7 4.3500000000000000e-01 6.9400358613051498e+00 -9.7694327351576469e+00 -3.0222806574663323e+00 0 0 0
176 1 4 1.1500000000000000e-01 5.2222271606008608e+00 -9.8730296157646311e+00 -1.1093504808615871e+00 0 0 0
177 1 9 -5.8499999999999996e-01 7.6807454077315516e+00 -9.5661874805614584e+00 -2.5244822397967455e+00 0 0 0
175 1 4 1.1500000000000000e-01 2.8914544629920229e+00 -1.0162010733011472e+01 -1.1379638397050340e+00 0 0 0
174 1 9 -5.8499999999999996e-01 5.1215604155067407e-01 -1.0885384444361843e+01 -2.3533908041111582e+00 0 0 0
10 1 3 -1.1500000000000000e-01 2.6041919809991909e+00 -9.2838645170076557e+00 -1.6475641982304179e+00 0 0 0
8 1 13 1.4999999999999999e-01 2.3985473003814822e-01 -9.8428543635810684e+00 -1.4643902521186878e+00 0 0 0
208 1 7 4.3500000000000000e-01 1.3770336633432700e+00 -1.0911952098753822e+01 -2.6495915292030983e+00 0 0 0
9 1 3 0.0000000000000000e+00 1.3405284185522448e+00 -9.0802690255344363e+00 -1.0425041330517986e+00 0 0 0
12 1 3 -1.1500000000000000e-01 5.1474427311374589e+00 -8.8358255505223795e+00 -1.5721068102289326e+00 0 0 0
14 1 13 1.4999999999999999e-01 7.5184666624051033e+00 -8.3731858891995437e+00 -1.8182500912033475e+00 0 0 0
15 1 3 0.0000000000000000e+00 8.6260976712375896e+00 -7.5092091901249400e+00 -1.4577650351201883e+00 0 0 0
13 1 3 0.0000000000000000e+00 6.2873674318812789e+00 -8.0693419447093486e+00 -1.1496698995602850e+00 0 0 0
11 1 5 2.6500000000000001e-01 3.7348212540907655e+00 -8.2771368462713220e+00 -1.4365465957368186e+00 0 0 0
248 1 6 -6.8300000000000005e-01 3.6288664592074777e+00 -7.4480251488599203e+00 -2.5591168227550285e+00 0 0 0
249 1 7 4.1799999999999998e-01 4.4956993268801773e+00 -7.1101065126565173e+00 -2.7542253327068433e+00 0 0 0
27 1 5 2.6500000000000001e-01 2.2161939056637072e+00 -7.2209396597754631e+00 3.9546392718487822e-01 0 0 0
28 1 3 0.0000000000000000e+00 3.6396139030509800e+00 -7.6157017965409075e+00 -5.3221034468893987e-02 0 0 0
29 1 5 2.6500000000000001e-01 4.8724676220381999e+00 -6.8248888696686318e+00 5.0123812674632562e-01 0 0 0
30 1 3 0.0000000000000000e+00 6.0217476528072700e+00 -6.8529285153721684e+00 -4.6775943755099664e-01 0 0 0
31 1 3 0.0000000000000000e+00 7.1606349177235833e+00 -6.0569550682268112e+00 -1.6007798091376202e-01 0 0 0
32 1 3 0.0000000000000000e+00 8.4962889207050356e+00 -6.4558585545392893e+00 -5.2314586465818125e-01 0 0 0
44 1 3 0.0000000000000000e+00 2.0433500616601532e+00 -5.7076419458532586e+00 7.4398559877497761e-01 0 0 0
45 1 5 2.6500000000000001e-01 3.1498362473790840e+00 -4.7872381779110436e+00 3.1210491691044012e-01 0 0 0
46 1 3 0.0000000000000000e+00 4.5035596193302521e+00 -5.3637784550271865e+00 7.2583718573203604e-01 0 0 0
47 1 3 0.0000000000000000e+00 5.5827297005344967e+00 -4.3854662908475888e+00 5.3484587174235187e-01 0 0 0
48 1 5 2.6500000000000001e-01 6.9319940659221624e+00 -4.9268441995328383e+00 9.2993251011911682e-01 0 0 0
49 1 3 0.0000000000000000e+00 8.0951868230518222e+00 -3.9275095993016254e+00 6.6213673728227240e-01 0 0 0
61 1 5 2.6500000000000001e-01 1.5442523142266658e+00 -2.7834405296766365e+00 5.2587620336139040e-01 0 0 0
62 1 5 2.6500000000000001e-01 2.9179308342923815e+00 -3.3926555716385489e+00 9.4744832317328032e-01 0 0 0
63 1 5 2.6500000000000001e-01 4.0203022574214708e+00 -2.3990416594610804e+00 3.4500513758452617e-01 0 0 0
64 1 5 2.6500000000000001e-01 5.4494344328389177e+00 -2.9222558787176656e+00 7.3191823058825878e-01 0 0 0
65 1 3 0.0000000000000000e+00 6.4718222620629904e+00 -2.2291436532992002e+00 -1.7136981067610160e-01 0 0 0
66 1 5 2.6500000000000001e-01 7.9416251198164254e+00 -2.6621862646718641e+00 -2.0842326325766322e-01 0 0 0
67 1 3 0.0000000000000000e+00 8.7879174379062057e+00 -1.5562251865792951e+00 4.9538019285058887e-01 0 0 0
78 1 5 2.6500000000000001e-01 1.3076290611493238e+00 -1.2893857238629400e+00 9.3563606510622066e-01 0 0 0
79 1 3 0.0000000000000000e+00 2.5415117915421734e+00 -4.7124855886567474e-01 4.9982463769435598e-01 0 0 0
80 1 5 2.6500000000000001e-01 3.9198037863202293e+00 -9.7333014962703424e-01 7.7449656075502316e-01 0 0 0
81 1 3 0.0000000000000000e+00 5.0609132784154207e+00 -1.7653001790132444e-01 2.7472236534062311e-01 0 0 0
82 1 3 0.0000000000000000e+00 6.1782600273350399e+00 -8.0025570903780219e-01 -3.5341465848413273e-01 0 0 0
84 1 5 2.6500000000000001e-01 8.4985742227570977e+00 -5.1692940138141581e-02 3.7756361416492867e-01 0 0 0
220 1 6 -6.8300000000000005e-01 8.2899235360584100e+00 -2.9159553413657426e+00 -1.5718994157751007e+00 0 0 0
221 1 7 4.1799999999999998e-01 7.9585939416881404e+00 -2.1594772347190294e+00 -2.0314019429408710e+00 0 0 0
222 1 6 -6.8300000000000005e-01 5.9808287904401034e+00 -2.6612385618292356e+00 2.1044413775319306e+00 0 0 0
223 1 7 4.1799999999999998e-01 6.5294403087533945e+00 -3.3937850747026479e+00 2.2600410899051182e+00 0 0 0
224 1 6 -6.8300000000000005e-01 3.1729962288434392e+00 -4.8000110655644752e+00 -1.0862763900282904e+00 0 0 0
225 1 7 4.1799999999999998e-01 2.2389791608559397e+00 -4.8112092651014029e+00 -1.3208663216724341e+00 0 0 0
226 1 6 -6.8300000000000005e-01 6.8990741821701178e+00 -5.3116999287832840e+00 2.2818434699830910e+00 0 0 0
227 1 7 4.1799999999999998e-01 6.8117369982569054e+00 -6.2583680284414882e+00 2.2248499426487132e+00 0 0 0
228 1 6 -6.8300000000000005e-01 3.0704606537458723e+00 -3.4609058332448592e+00 2.2898201588913802e+00 0 0 0
229 1 7 4.1799999999999998e-01 2.9208594734342919e+00 -2.6046149715360500e+00 2.6623962087402742e+00 0 0 0
230 1 6 -6.8300000000000005e-01 3.9067175620399262e+00 -2.2913440230396125e+00 -1.0909449207487882e+00 0 0 0
231 1 7 4.1799999999999998e-01 4.1431484852948461e+00 -3.1949658833937007e+00 -1.3049248675499057e+00 0 0 0
232 1 6 -6.8300000000000005e-01 4.0837038946858240e+00 -7.9703233237401039e-01 2.1814564987576710e+00 0 0 0
236 1 6 -6.8300000000000005e-01 2.2068950798033318e+00 -8.0297454205354448e+00 1.5430420291410150e+00 0 0 0
240 1 6 -6.8300000000000005e-01 5.2646403596778271e+00 -7.4633608920619547e+00 1.7386377153699482e+00 0 0 0
241 1 7 4.1799999999999998e-01 4.4594251978144976e+00 -7.4836413489139169e+00 2.2837701217547495e+00 0 0 0
242 1 6 -6.8300000000000005e-01 7.6814518768358155e+00 -4.1838493351624428e-01 -1.9687067029858432e+00 0 0 0
250 1 6 -6.8300000000000005e-01 1.3359633721362987e+00 -2.8839093959538200e+00 -8.0644890799561120e-01 0 0 0
262 1 6 -6.8300000000000005e-01 1.2243951093649823e+00 -1.0064665653773632e+00 2.3248693454609035e+00 0 0 0
233 1 7 4.1799999999999998e-01 4.7414742078794525e+00 -1.4665220871973124e+00 2.4795282668784173e+00 0 0 0
257 1 7 4.1799999999999998e-01 2.0643252836047457e+00 -6.9781714879988419e+00 -2.0035445446216458e+00 0 0 0
256 1 6 -6.8300000000000005e-01 1.2135685588924083e+00 -6.7510228648573376e+00 -1.6820766836890038e+00 0 0 0
251 1 7 4.1799999999999998e-01 2.0058934041594720e+00 -2.3166132474415080e+00 -1.2859413545198319e+00 0 0 0
219 1 7 4.1799999999999998e-01 8.8941137600890450e+00 -4.7496970626813813e+00 2.6494532051887787e+00 0 0 0
263 1 7 4.1799999999999998e-01 6.6845477872445191e-01 -1.6763752148087439e+00 2.7396789677563400e+00 0 0 0
26 1 5 2.6500000000000001e-01 1.1041574350384256e+00 -7.6532456279399348e+00 -6.0412528836219370e-01 0 0 0
237 1 7 4.1799999999999998e-01 1.2923415517350829e+00 -8.2984999768817431e+00 1.7472191301630571e+00 0 0 0
43 1 5 2.6500000000000001e-01 5.6448765120649425e-01 -5.1615583158510674e+00 1.1469617622443686e+00 0 0 0
60 1 5 2.6500000000000001e-01 3.7428050785099720e-01 -3.5755836863571959e+00 1.1765751515006553e+00 0 0 0
254 1 6 -6.8300000000000005e-01 1.7425941941991460e-01 -3.3972743688735840e+00 2.6093127980326147e+00 0 0 0
234 1 6 -6.8300000000000005e-01 3.0944187037666854e-01 -5.6658664450601677e+00 2.3983316890295701e+00 0 0 0
17 1 3 -1.1500000000000000e-01 1.0951967461276109e+01 -7.5611811166455709e+00 -9.8691351071211564e-01 0 0 0
218 1 6 -6.8300000000000005e-01 9.6778966097239127e+00 -5.0081348402679575e+00 2.0960235712737307e+00 0 0 0
51 1 3 -1.1500000000000000e-01 1.0521924368619674e+01 -3.3304076214479479e+00 7.9468230280463747e-01 0 0 0
7166 2302 2 5.5640000000000001e-01 8.1824012867720661e+00 -1.9246973646273633e+00 4.3713724219805563e+00 0 0 0
7165 2302 2 5.5640000000000001e-01 8.6212293336217005e+00 -1.2970528232977765e+00 3.0654662260507024e+00 0 0 0
178 1 4 1.1500000000000000e-01 1.0025977074449189e+01 -8.9610754857459938e+00 -2.2764121446544148e+00 0 0 0
68 1 3 -1.1500000000000000e-01 1.0104260817444608e+01 -1.9496862247585804e+00 6.8084104865272199e-01 0 0 0
189 1 4 1.1500000000000000e-01 1.1922819945799043e+01 -7.9847339516157465e+00 -1.3285608143821321e+00 0 0 0
33 1 3 0.0000000000000000e+00 9.6534310704561381e+00 -5.6538747242940772e+00 -2.2568793450840555e-01 0 0 0
194 1 4 1.1500000000000000e-01 1.0695849825869482e+01 -1.2974245765301138e+00 1.3067860115299892e+00 0 0 0
213 1 7 4.3500000000000000e-01 1.1875662429002855e+01 -5.5327587158574874e+00 1.0269469331302434e+00 0 0 0
193 1 4 1.1500000000000000e-01 1.1228259030911577e+01 -3.2557298835653863e+00 1.5806299955227801e+00 0 0 0
34 1 13 1.4999999999999999e-01 1.0887305542968651e+01 -6.2406513324354558e+00 -4.9050385362045318e-01 0 0 0
190 1 9 -5.8499999999999996e-01 1.2020977271564986e+01 -5.9565044369254672e+00 1.7985394139490921e-01 0 0 0
50 1 5 2.6500000000000001e-01 9.5055206405085784e+00 -4.5345948429395389e+00 8.0587472896606827e-01 0 0 0
16 1 3 -1.1500000000000000e-01 9.9263260648145319e+00 -7.9924447850134444e+00 -1.8202171865486811e+00 0 0 0
7164 2302 1 -1.1128000000000000e+00 8.4332897058079652e+00 -2.1422307144891470e+00 3.4736156954838346e+00 0 0 0
255 1 7 4.1799999999999998e-01 1.1116290582550140e-01 -4.3451763804691534e+00 2.8874773451468880e+00 0 0 0
77 1 3 0.0000000000000000e+00 4.0107782328979130e-02 -7.8733944956290658e-01 3.2205836566703783e-01 0 0 0
235 1 7 4.1799999999999998e-01 4.3327841480073938e-02 -6.5795232044038086e+00 2.3312445617940059e+00 0 0 0
217 1 7 4.3500000000000000e-01 7.5682299872957230e+00 8.8059771189632787e+00 -5.1816092191581360e+00 0 0 0
205 1 9 -5.8499999999999996e-01 7.3156654696092227e+00 8.1875870935633639e+00 -4.5420700615557568e+00 0 0 0
95 1 3 0.0000000000000000e+00 1.0521064077121633e+00 1.4376785734574238e+00 5.3620841840424549e-01 0 0 0
96 1 3 0.0000000000000000e+00 2.3424964398350361e+00 9.4107501613306077e-01 3.4439075153442589e-01 0 0 0
97 1 3 0.0000000000000000e+00 3.4766358875342052e+00 1.7724059694162313e+00 4.2296859396522624e-01 0 0 0
98 1 3 0.0000000000000000e+00 4.7627497936836694e+00 1.2296888995413799e+00 7.2761856005850046e-03 0 0 0
99 1 5 2.6500000000000001e-01 6.0155982322392170e+00 2.1234360348780932e+00 1.6891428732526820e-01 0 0 0
100 1 3 0.0000000000000000e+00 6.9518730314524335e+00 1.5425221822102264e+00 -8.8952069492803099e-01 0 0 0
112 1 3 0.0000000000000000e+00 8.6208641064781955e-01 2.8218350707341444e+00 6.5650659560971669e-01 0 0 0
113 1 3 0.0000000000000000e+00 1.9659579052615044e+00 3.6283768568686559e+00 7.7195776875856159e-01 0 0 0
114 1 3 0.0000000000000000e+00 3.1938905398742574e+00 3.1286317732380966e+00 2.4853379736485146e-01 0 0 0
115 1 5 2.6500000000000001e-01 4.3998707368920256e+00 4.0561297420824518e+00 5.1388461090027937e-01 0 0 0
116 1 3 0.0000000000000000e+00 5.6135797544112629e+00 3.6073559378833728e+00 -2.2687013216284990e-01 0 0 0
117 1 5 2.6500000000000001e-01 5.9893028104818136e+00 4.1936999417372638e+00 -1.6134403907657049e+00 0 0 0
118 1 3 0.0000000000000000e+00 7.4817493279489593e+00 3.7560734437104442e+00 -1.6588831151021470e+00 0 0 0
129 1 3 0.0000000000000000e+00 4.2472821787523185e-01 5.5233850367481523e+00 1.2286280936333411e+00 0 0 0
130 1 3 0.0000000000000000e+00 1.7366335773398851e+00 5.0098476224006463e+00 9.8720361778294075e-01 0 0 0
131 1 3 0.0000000000000000e+00 2.8025196039820193e+00 5.9157079714308480e+00 6.7696845661043714e-01 0 0 0
132 1 3 0.0000000000000000e+00 3.9814151665178619e+00 5.4670016699729631e+00 4.9647739562314525e-02 0 0 0
133 1 3 0.0000000000000000e+00 4.9585129986468148e+00 6.3178680077602234e+00 -5.0003358580158164e-01 0 0 0
134 1 3 0.0000000000000000e+00 5.9921586467624817e+00 5.7413024427962291e+00 -1.3327535973600810e+00 0 0 0
135 1 3 0.0000000000000000e+00 6.5878931918616699e+00 6.5127716214792954e+00 -2.2645757197843523e+00 0 0 0
146 1 3 0.0000000000000000e+00 2.2901206766681562e-01 6.8827659345154615e+00 1.4214779064589866e+00 0 0 0
147 1 3 0.0000000000000000e+00 1.2763128681369009e+00 7.7916615263659832e+00 1.1061072124917906e+00 0 0 0
148 1 3 0.0000000000000000e+00 2.4861057215223328e+00 7.3152104017709920e+00 5.0057442125983231e-01 0 0 0
149 1 3 0.0000000000000000e+00 3.4342868462064260e+00 8.1369245569586006e+00 -4.6147205235066401e-02 0 0 0
150 1 3 0.0000000000000000e+00 4.6459423389640220e+00 7.6987431702475240e+00 -5.9461052335774434e-01 0 0 0
151 1 3 0.0000000000000000e+00 5.2423659655924189e+00 8.4569314436358169e+00 -1.6293385525733544e+00 0 0 0
152 1 3 0.0000000000000000e+00 6.2902363645052395e+00 7.9192721740667933e+00 -2.3957825601100042e+00 0 0 0
244 1 6 -6.8300000000000005e-01 6.4979463107804998e+00 2.1338530943796683e+00 1.5022546908760366e+00 0 0 0
245 1 7 4.1799999999999998e-01 6.2914663996092131e+00 2.9351205241999736e+00 1.9794339262393765e+00 0 0 0
252 1 6 -6.8300000000000005e-01 5.2159852485943903e+00 3.7663341196410922e+00 -2.7313526755411339e+00 0 0 0
253 1 7 4.1799999999999998e-01 4.7342554362390059e+00 4.4544353108097958e+00 -3.1402444542816870e+00 0 0 0
258 1 6 -6.8300000000000005e-01 4.6940442450908026e+00 4.2309023826690941e+00 1.9229926969019551e+00 0 0 0
259 1 7 4.1799999999999998e-01 3.8702569077338880e+00 4.2305099810691553e+00 2.3816622389508013e+00 0 0 0
101 1 5 2.6500000000000001e-01 8.0929355608271560e+00 2.3822309959656520e+00 -1.5099806818617771e+00 0 0 0
246 1 6 -6.8300000000000005e-01 8.4871206120197691e+00 1.9174539785110287e+00 -2.7791651115382017e+00 0 0 0
136 1 3 -1.1500000000000000e-01 7.7509385334436498e+00 5.9735458054644264e+00 -2.8062868294480734e+00 0 0 0
119 1 3 -1.1500000000000000e-01 8.1595945046238878e+00 4.6176000556084071e+00 -2.5236208427279818e+00 0 0 0
239 1 7 4.1799999999999998e-01 7.4731348130783353e+00 7.6176872165873966e-01 1.8259226054144744e+00 0 0 0
202 1 4 1.1500000000000000e-01 8.5945824775791841e+00 6.6132334653413176e+00 -3.0637787172563082e+00 0 0 0
243 1 7 4.1799999999999998e-01 7.8416503666587083e+00 3.8988554548574200e-01 -2.4508989193787021e+00 0 0 0
7125 2289 1 -1.1128000000000000e+00 2.6616237125348077e+00 1.0695014743702833e+00 3.7195176742422671e+00 0 0 0
247 1 7 4.1799999999999998e-01 8.1052349448351322e+00 2.5566142999481203e+00 -3.3057842352319797e+00 0 0 0
7168 2303 2 5.5640000000000001e-01 2.6173640593742258e+00 2.9005325556514916e+00 3.7674496800092014e+00 0 0 0
7126 2289 2 5.5640000000000001e-01 1.9040025243760887e+00 6.0210019136777704e-01 3.3676953739051378e+00 0 0 0
7127 2289 2 5.5640000000000001e-01 3.4148530932099899e+00 6.6161798239123604e-01 3.2923064163601139e+00 0 0 0
238 1 6 -6.8300000000000005e-01 8.2611097465384162e+00 2.2977552361826586e-01 1.7304875354719407e+00 0 0 0
201 1 4 1.1500000000000000e-01 9.2501780839106882e+00 4.4833156259243045e+00 -2.5698964022793436e+00 0 0 0
85 1 3 -1.1500000000000000e-01 9.6521022346273302e+00 9.0277251912113543e-01 -4.2309546203667024e-02 0 0 0
102 1 13 1.4999999999999999e-01 9.2740704668277090e+00 2.1971713605639906e+00 -5.6601115506408983e-01 0 0 0
198 1 9 -5.8499999999999996e-01 1.0427860448592599e+01 2.8665963380155985e+00 -9.7721160647338778e-01 0 0 0
215 1 7 4.3500000000000000e-01 1.0582669718283697e+01 2.4603838148649797e+00 -1.8425962975678194e+00 0 0 0
197 1 4 1.1500000000000000e-01 1.0478349960728268e+01 9.5385811683141652e-01 6.6485692622300852e-01 0 0 0
169 1 3 -1.1500000000000000e-01 5.6344061928835742e+00 1.0679945970768170e+01 -2.5625056522273169e+00 0 0 0
167 1 3 -1.1500000000000000e-01 4.0314926190169009e+00 1.0329329463727495e+01 -7.7345422199905745e-01 0 0 0
206 1 4 1.1500000000000000e-01 6.4777780022291021e+00 1.0644929268620992e+01 -4.4455398037600551e+00 0 0 0
153 1 13 1.4999999999999999e-01 6.7318039065235933e+00 8.7407400228523873e+00 -3.4876949665263806e+00 0 0 0
185 1 4 1.1500000000000000e-01 3.8563594850966925e+00 1.1343521799816347e+01 -9.9871456515186330e-01 0 0 0
184 1 9 -5.8499999999999996e-01 1.6475069138395155e+00 1.1308204818162794e+01 1.8076666785778209e-01 0 0 0
186 1 4 1.1500000000000000e-01 5.2377844420481363e+00 1.1681862038511012e+01 -2.5972669148309828e+00 0 0 0
170 1 3 -1.1500000000000000e-01 6.1031908844166480e+00 1.0006549489948055e+01 -3.6772589255089594e+00 0 0 0
166 1 3 0.0000000000000000e+00 3.0584305440501631e+00 9.4736377796349736e+00 -2.8368502435298287e-01 0 0 0
168 1 3 0.0000000000000000e+00 5.1178026321965815e+00 9.8569717364183713e+00 -1.5601897067887989e+00 0 0 0
164 1 3 0.0000000000000000e+00 1.0039440695791235e+00 9.1890844203958917e+00 9.5802292900586783e-01 0 0 0