# System

748 atoms
32 bonds
16 angles
3 atom types
1 bond types
1 angle types
extra bond per atom 2
extra angle per atom 1
extra special per atom 2
-10  10 xlo xhi
-10  10 ylo yhi
-28.3196      28.3196 zlo zhi

Atoms

1	1	3	0	5.1623	0.46462	-19.0264	
2	1	3	0	4.8527	1.8212	-18.7584	
3	1	3	0	4.6699	2.2489	-17.4185	
4	1	3	0	3.9033	3.4102	-17.1505	
5	1	3	0	5.0999	0.92549	-21.4381	
6	1	3	0	4.6699	2.2489	-21.1702	
7	1	3	0	4.4495	2.6585	-19.8303	
8	1	3	0	3.5819	3.7464	-19.5623	
9	1	3	0	3.2317	4.0524	-18.2224	
10	1	3	0	2.0371	4.7661	-17.9544	
11	1	3	0	4.9964	1.3789	-23.8499	
12	1	3	0	4.4495	2.6585	-23.582	
13	1	3	0	4.1933	3.0466	-22.2421	
14	1	3	0	3.2317	4.0524	-21.9741	
15	1	3	0	2.8554	4.3258	-20.6342	
16	1	3	0	1.6017	4.9295	-20.3662	
17	1	3	0	1.1534	5.0532	-19.0264	
18	1	3	0	-0.23254	5.178	-18.7584	
19	1	3	0	-0.69576	5.1363	-17.4185	
20	1	3	0	-2.0371	4.7661	-17.1505	
21	1	3	0	5.1832	-2.0745e-16	-27.8696	
22	1	3	0	4.9964	1.3789	-27.6016	
23	1	3	0	4.8527	1.8212	-26.2617	
24	1	3	0	4.1933	3.0466	-25.9938	
25	1	3	0	3.9033	3.4102	-24.6539	
26	1	3	0	2.8554	4.3258	-24.3859	
27	1	3	0	2.4562	4.5643	-23.046	
28	1	3	0	1.1534	5.0532	-22.778	
29	1	3	0	0.69576	5.1363	-21.4381	
30	1	3	0	-0.69576	5.1363	-21.1702	
31	1	3	0	-1.1534	5.0532	-19.8303	
32	1	3	0	-2.4562	4.5643	-19.5623	
33	1	3	0	-2.8554	4.3258	-18.2224	
34	1	3	0	-3.9033	3.4102	-17.9544	
35	1	3	0	3.5819	3.7464	-27.0657	
36	1	3	0	2.4562	4.5643	-26.7977	
37	1	3	0	2.0371	4.7661	-25.4578	
38	1	3	0	0.69576	5.1363	-25.1898	
39	1	3	0	0.23254	5.178	-23.8499	
40	1	3	0	-1.1534	5.0532	-23.582	
41	1	3	0	-1.6017	4.9295	-22.2421	
42	1	3	0	-2.8554	4.3258	-21.9741	
43	1	3	0	-3.2317	4.0524	-20.6342	
44	1	3	0	-4.1933	3.0466	-20.3662	
45	1	3	0	-4.4495	2.6585	-19.0264	
46	1	3	0	-4.9964	1.3789	-18.7584	
47	1	3	0	-5.0999	0.92549	-17.4185	
48	1	3	0	-5.1623	-0.46462	-17.1505	
49	1	3	0	1.6017	4.9295	-27.8696	
50	1	3	0	0.23254	5.178	-27.6016	
51	1	3	0	-0.23254	5.178	-26.2617	
52	1	3	0	-1.6017	4.9295	-25.9938	
53	1	3	0	-2.0371	4.7661	-24.6539	
54	1	3	0	-3.2317	4.0524	-24.3859	
55	1	3	0	-3.5819	3.7464	-23.046	
56	1	3	0	-4.4495	2.6585	-22.778	
57	1	3	0	-4.6699	2.2489	-21.4381	
58	1	3	0	-5.0999	0.92549	-21.1702	
59	1	3	0	-5.1623	0.46462	-19.8303	
60	1	3	0	-5.0999	-0.92549	-19.5623	
61	1	3	0	-4.9964	-1.3789	-18.2224	
62	1	3	0	-4.4495	-2.6585	-17.9544	
63	1	3	0	-2.4562	4.5643	-27.0657	
64	1	3	0	-3.5819	3.7464	-26.7977	
65	1	3	0	-3.9033	3.4102	-25.4578	
66	1	3	0	-4.6699	2.2489	-25.1898	
67	1	3	0	-4.8527	1.8212	-23.8499	
68	1	3	0	-5.1623	0.46462	-23.582	
69	1	3	0	-5.1832	-2.0745e-16	-22.2421	
70	1	3	0	-4.9964	-1.3789	-21.9741	
71	1	3	0	-4.8527	-1.8212	-20.6342	
72	1	3	0	-4.1933	-3.0466	-20.3662	
73	1	3	0	-3.9033	-3.4102	-19.0264	
74	1	3	0	-2.8554	-4.3258	-18.7584	
75	1	3	0	-2.4562	-4.5643	-17.4185	
76	1	3	0	-1.1534	-5.0532	-17.1505	
77	1	3	0	-4.1933	3.0466	-27.8696	
78	1	3	0	-4.8527	1.8212	-27.6016	
79	1	3	0	-4.9964	1.3789	-26.2617	
80	1	3	0	-5.1832	-2.0745e-16	-25.9938	
81	1	3	0	-5.1623	-0.46462	-24.6539	
82	1	3	0	-4.8527	-1.8212	-24.3859	
83	1	3	0	-4.6699	-2.2489	-23.046	
84	1	3	0	-3.9033	-3.4102	-22.778	
85	1	3	0	-3.5819	-3.7464	-21.4381	
86	1	3	0	-2.4562	-4.5643	-21.1702	
87	1	3	0	-2.0371	-4.7661	-19.8303	
88	1	3	0	-0.69576	-5.1363	-19.5623	
89	1	3	0	-0.23254	-5.178	-18.2224	
90	1	3	0	1.1534	-5.0532	-17.9544	
91	1	3	0	-5.0999	-0.92549	-27.0657	
92	1	3	0	-4.6699	-2.2489	-26.7977	
93	1	3	0	-4.4495	-2.6585	-25.4578	
94	1	3	0	-3.5819	-3.7464	-25.1898	
95	1	3	0	-3.2317	-4.0524	-23.8499	
96	1	3	0	-2.0371	-4.7661	-23.582	
97	1	3	0	-1.6017	-4.9295	-22.2421	
98	1	3	0	-0.23254	-5.178	-21.9741	
99	1	3	0	0.23254	-5.178	-20.6342	
100	1	3	0	1.6017	-4.9295	-20.3662	
101	1	3	0	2.0371	-4.7661	-19.0264	
102	1	3	0	3.2317	-4.0524	-18.7584	
103	1	3	0	3.5819	-3.7464	-17.4185	
104	1	3	0	4.4495	-2.6585	-17.1505	
105	1	3	0	-4.1933	-3.0466	-27.8696	
106	1	3	0	-3.2317	-4.0524	-27.6016	
107	1	3	0	-2.8554	-4.3258	-26.2617	
108	1	3	0	-1.6017	-4.9295	-25.9938	
109	1	3	0	-1.1534	-5.0532	-24.6539	
110	1	3	0	0.23254	-5.178	-24.3859	
111	1	3	0	0.69576	-5.1363	-23.046	
112	1	3	0	2.0371	-4.7661	-22.778	
113	1	3	0	2.4562	-4.5643	-21.4381	
114	1	3	0	3.5819	-3.7464	-21.1702	
115	1	3	0	3.9033	-3.4102	-19.8303	
116	1	3	0	4.6699	-2.2489	-19.5623	
117	1	3	0	4.8527	-1.8212	-18.2224	
118	1	3	0	5.1623	-0.46462	-17.9544	
119	1	3	0	-0.69576	-5.1363	-27.0657	
120	1	3	0	0.69576	-5.1363	-26.7977	
121	1	3	0	1.1534	-5.0532	-25.4578	
122	1	3	0	2.4562	-4.5643	-25.1898	
123	1	3	0	2.8554	-4.3258	-23.8499	
124	1	3	0	3.9033	-3.4102	-23.582	
125	1	3	0	4.1933	-3.0466	-22.2421	
126	1	3	0	4.8527	-1.8212	-21.9741	
127	1	3	0	4.9964	-1.3789	-20.6342	
128	1	3	0	5.1832	-2.0745e-16	-20.3662	
129	1	3	0	1.6017	-4.9295	-27.8696	
130	1	3	0	2.8554	-4.3258	-27.6016	
131	1	3	0	3.2317	-4.0524	-26.2617	
132	1	3	0	4.1933	-3.0466	-25.9938	
133	1	3	0	4.4495	-2.6585	-24.6539	
134	1	3	0	4.9964	-1.3789	-24.3859	
135	1	3	0	5.0999	-0.92549	-23.046	
136	1	3	0	5.1623	0.46462	-22.778	
137	1	3	0	4.6699	-2.2489	-27.0657	
138	1	3	0	5.0999	-0.92549	-26.7977	
139	1	3	0	5.1623	-0.46462	-25.4578	
140	1	3	0	5.0999	0.92549	-25.1898	
141	1	3	0	5.1623	0.46462	-7.7713	
142	1	3	0	4.8527	1.8212	-7.5034	
143	1	3	0	4.6699	2.2489	-6.1635	
144	1	3	0	3.9033	3.4102	-5.8955	
145	1	3	0	5.0999	0.92549	-10.1831	
146	1	3	0	4.6699	2.2489	-9.9151	
147	1	3	0	4.4495	2.6585	-8.5753	
148	1	3	0	3.5819	3.7464	-8.3073	
149	1	3	0	3.2317	4.0524	-6.9674	
150	1	3	0	2.0371	4.7661	-6.6994	
151	1	3	0	4.9964	1.3789	-12.5949	
152	1	3	0	4.4495	2.6585	-12.3269	
153	1	3	0	4.1933	3.0466	-10.987	
154	1	3	0	3.2317	4.0524	-10.7191	
155	1	3	0	2.8554	4.3258	-9.3792	
156	1	3	0	1.6017	4.9295	-9.1112	
157	1	3	0	1.1534	5.0532	-7.7713	
158	1	3	0	-0.23254	5.178	-7.5034	
159	1	3	0	-0.69576	5.1363	-6.1635	
160	1	3	0	-2.0371	4.7661	-5.8955	
161	1	3	0	5.1832	-2.0745e-16	-16.6146	
162	1	3	0	4.9964	1.3789	-16.3466	
163	1	3	0	4.8527	1.8212	-15.0067	
164	1	3	0	4.1933	3.0466	-14.7387	
165	1	3	0	3.9033	3.4102	-13.3988	
166	1	3	0	2.8554	4.3258	-13.1309	
167	1	3	0	2.4562	4.5643	-11.791	
168	1	3	0	1.1534	5.0532	-11.523	
169	1	3	0	0.69576	5.1363	-10.1831	
170	1	3	0	-0.69576	5.1363	-9.9151	
171	1	3	0	-1.1534	5.0532	-8.5753	
172	1	3	0	-2.4562	4.5643	-8.3073	
173	1	3	0	-2.8554	4.3258	-6.9674	
174	1	3	0	-3.9033	3.4102	-6.6994	
175	1	3	0	3.5819	3.7464	-15.8106	
176	1	3	0	2.4562	4.5643	-15.5427	
177	1	3	0	2.0371	4.7661	-14.2028	
178	1	3	0	0.69576	5.1363	-13.9348	
179	1	3	0	0.23254	5.178	-12.5949	
180	1	3	0	-1.1534	5.0532	-12.3269	
181	1	3	0	-1.6017	4.9295	-10.987	
182	1	3	0	-2.8554	4.3258	-10.7191	
183	1	3	0	-3.2317	4.0524	-9.3792	
184	1	3	0	-4.1933	3.0466	-9.1112	
185	1	3	0	-4.4495	2.6585	-7.7713	
186	1	3	0	-4.9964	1.3789	-7.5034	
187	1	3	0	-5.0999	0.92549	-6.1635	
188	1	3	0	-5.1623	-0.46462	-5.8955	
189	1	3	0	1.6017	4.9295	-16.6146	
190	1	3	0	0.23254	5.178	-16.3466	
191	1	3	0	-0.23254	5.178	-15.0067	
192	1	3	0	-1.6017	4.9295	-14.7387	
193	1	3	0	-2.0371	4.7661	-13.3988	
194	1	3	0	-3.2317	4.0524	-13.1309	
195	1	3	0	-3.5819	3.7464	-11.791	
196	1	3	0	-4.4495	2.6585	-11.523	
197	1	3	0	-4.6699	2.2489	-10.1831	
198	1	3	0	-5.0999	0.92549	-9.9151	
199	1	3	0	-5.1623	0.46462	-8.5753	
200	1	3	0	-5.0999	-0.92549	-8.3073	
201	1	3	0	-4.9964	-1.3789	-6.9674	
202	1	3	0	-4.4495	-2.6585	-6.6994	
203	1	3	0	-2.4562	4.5643	-15.8106	
204	1	3	0	-3.5819	3.7464	-15.5427	
205	1	3	0	-3.9033	3.4102	-14.2028	
206	1	3	0	-4.6699	2.2489	-13.9348	
207	1	3	0	-4.8527	1.8212	-12.5949	
208	1	3	0	-5.1623	0.46462	-12.3269	
209	1	3	0	-5.1832	-2.0745e-16	-10.987	
210	1	3	0	-4.9964	-1.3789	-10.7191	
211	1	3	0	-4.8527	-1.8212	-9.3792	
212	1	3	0	-4.1933	-3.0466	-9.1112	
213	1	3	0	-3.9033	-3.4102	-7.7713	
214	1	3	0	-2.8554	-4.3258	-7.5034	
215	1	3	0	-2.4562	-4.5643	-6.1635	
216	1	3	0	-1.1534	-5.0532	-5.8955	
217	1	3	0	-4.1933	3.0466	-16.6146	
218	1	3	0	-4.8527	1.8212	-16.3466	
219	1	3	0	-4.9964	1.3789	-15.0067	
220	1	3	0	-5.1832	-2.0745e-16	-14.7387	
221	1	3	0	-5.1623	-0.46462	-13.3988	
222	1	3	0	-4.8527	-1.8212	-13.1309	
223	1	3	0	-4.6699	-2.2489	-11.791	
224	1	3	0	-3.9033	-3.4102	-11.523	
225	1	3	0	-3.5819	-3.7464	-10.1831	
226	1	3	0	-2.4562	-4.5643	-9.9151	
227	1	3	0	-2.0371	-4.7661	-8.5753	
228	1	3	0	-0.69576	-5.1363	-8.3073	
229	1	3	0	-0.23254	-5.178	-6.9674	
230	1	3	0	1.1534	-5.0532	-6.6994	
231	1	3	0	-5.0999	-0.92549	-15.8106	
232	1	3	0	-4.6699	-2.2489	-15.5427	
233	1	3	0	-4.4495	-2.6585	-14.2028	
234	1	3	0	-3.5819	-3.7464	-13.9348	
235	1	3	0	-3.2317	-4.0524	-12.5949	
236	1	3	0	-2.0371	-4.7661	-12.3269	
237	1	3	0	-1.6017	-4.9295	-10.987	
238	1	3	0	-0.23254	-5.178	-10.7191	
239	1	3	0	0.23254	-5.178	-9.3792	
240	1	3	0	1.6017	-4.9295	-9.1112	
241	1	3	0	2.0371	-4.7661	-7.7713	
242	1	3	0	3.2317	-4.0524	-7.5034	
243	1	3	0	3.5819	-3.7464	-6.1635	
244	1	3	0	4.4495	-2.6585	-5.8955	
245	1	3	0	-4.1933	-3.0466	-16.6146	
246	1	3	0	-3.2317	-4.0524	-16.3466	
247	1	3	0	-2.8554	-4.3258	-15.0067	
248	1	3	0	-1.6017	-4.9295	-14.7387	
249	1	3	0	-1.1534	-5.0532	-13.3988	
250	1	3	0	0.23254	-5.178	-13.1309	
251	1	3	0	0.69576	-5.1363	-11.791	
252	1	3	0	2.0371	-4.7661	-11.523	
253	1	3	0	2.4562	-4.5643	-10.1831	
254	1	3	0	3.5819	-3.7464	-9.9151	
255	1	3	0	3.9033	-3.4102	-8.5753	
256	1	3	0	4.6699	-2.2489	-8.3073	
257	1	3	0	4.8527	-1.8212	-6.9674	
258	1	3	0	5.1623	-0.46462	-6.6994	
259	1	3	0	-0.69576	-5.1363	-15.8106	
260	1	3	0	0.69576	-5.1363	-15.5427	
261	1	3	0	1.1534	-5.0532	-14.2028	
262	1	3	0	2.4562	-4.5643	-13.9348	
263	1	3	0	2.8554	-4.3258	-12.5949	
264	1	3	0	3.9033	-3.4102	-12.3269	
265	1	3	0	4.1933	-3.0466	-10.987	
266	1	3	0	4.8527	-1.8212	-10.7191	
267	1	3	0	4.9964	-1.3789	-9.3792	
268	1	3	0	5.1832	-2.0745e-16	-9.1112	
269	1	3	0	1.6017	-4.9295	-16.6146	
270	1	3	0	2.8554	-4.3258	-16.3466	
271	1	3	0	3.2317	-4.0524	-15.0067	
272	1	3	0	4.1933	-3.0466	-14.7387	
273	1	3	0	4.4495	-2.6585	-13.3988	
274	1	3	0	4.9964	-1.3789	-13.1309	
275	1	3	0	5.0999	-0.92549	-11.791	
276	1	3	0	5.1623	0.46462	-11.523	
277	1	3	0	4.6699	-2.2489	-15.8106	
278	1	3	0	5.0999	-0.92549	-15.5427	
279	1	3	0	5.1623	-0.46462	-14.2028	
280	1	3	0	5.0999	0.92549	-13.9348	
281	1	3	0	5.1623	0.46462	3.4837	
282	1	3	0	4.8527	1.8212	3.7517	
283	1	3	0	4.6699	2.2489	5.0916	
284	1	3	0	3.9033	3.4102	5.3595	
285	1	3	0	5.0999	0.92549	1.0719	
286	1	3	0	4.6699	2.2489	1.3399	
287	1	3	0	4.4495	2.6585	2.6798	
288	1	3	0	3.5819	3.7464	2.9477	
289	1	3	0	3.2317	4.0524	4.2876	
290	1	3	0	2.0371	4.7661	4.5556	
291	1	3	0	4.9964	1.3789	-1.3399	
292	1	3	0	4.4495	2.6585	-1.0719	
293	1	3	0	4.1933	3.0466	0.26798	
294	1	3	0	3.2317	4.0524	0.53595	
295	1	3	0	2.8554	4.3258	1.8758	
296	1	3	0	1.6017	4.9295	2.1438	
297	1	3	0	1.1534	5.0532	3.4837	
298	1	3	0	-0.23254	5.178	3.7517	
299	1	3	0	-0.69576	5.1363	5.0916	
300	1	3	0	-2.0371	4.7661	5.3595	
301	1	3	0	5.1832	-2.0745e-16	-5.3595	
302	1	3	0	4.9964	1.3789	-5.0916	
303	1	3	0	4.8527	1.8212	-3.7517	
304	1	3	0	4.1933	3.0466	-3.4837	
305	1	3	0	3.9033	3.4102	-2.1438	
306	1	3	0	2.8554	4.3258	-1.8758	
307	1	3	0	2.4562	4.5643	-0.53595	
308	1	3	0	1.1534	5.0532	-0.26798	
309	1	3	0	0.69576	5.1363	1.0719	
310	1	3	0	-0.69576	5.1363	1.3399	
311	1	3	0	-1.1534	5.0532	2.6798	
312	1	3	0	-2.4562	4.5643	2.9477	
313	1	3	0	-2.8554	4.3258	4.2876	
314	1	3	0	-3.9033	3.4102	4.5556	
315	1	3	0	3.5819	3.7464	-4.5556	
316	1	3	0	2.4562	4.5643	-4.2876	
317	1	3	0	2.0371	4.7661	-2.9477	
318	1	3	0	0.69576	5.1363	-2.6798	
319	1	3	0	0.23254	5.178	-1.3399	
320	1	3	0	-1.1534	5.0532	-1.0719	
321	1	3	0	-1.6017	4.9295	0.26798	
322	1	3	0	-2.8554	4.3258	0.53595	
323	1	3	0	-3.2317	4.0524	1.8758	
324	1	3	0	-4.1933	3.0466	2.1438	
325	1	3	0	-4.4495	2.6585	3.4837	
326	1	3	0	-4.9964	1.3789	3.7517	
327	1	3	0	-5.0999	0.92549	5.0916	
328	1	3	0	-5.1623	-0.46462	5.3595	
329	1	3	0	1.6017	4.9295	-5.3595	
330	1	3	0	0.23254	5.178	-5.0916	
331	1	3	0	-0.23254	5.178	-3.7517	
332	1	3	0	-1.6017	4.9295	-3.4837	
333	1	3	0	-2.0371	4.7661	-2.1438	
334	1	3	0	-3.2317	4.0524	-1.8758	
335	1	3	0	-3.5819	3.7464	-0.53595	
336	1	3	0	-4.4495	2.6585	-0.26798	
337	1	3	0	-4.6699	2.2489	1.0719	
338	1	3	0	-5.0999	0.92549	1.3399	
339	1	3	0	-5.1623	0.46462	2.6798	
340	1	3	0	-5.0999	-0.92549	2.9477	
341	1	3	0	-4.9964	-1.3789	4.2876	
342	1	3	0	-4.4495	-2.6585	4.5556	
343	1	3	0	-2.4562	4.5643	-4.5556	
344	1	3	0	-3.5819	3.7464	-4.2876	
345	1	3	0	-3.9033	3.4102	-2.9477	
346	1	3	0	-4.6699	2.2489	-2.6798	
347	1	3	0	-4.8527	1.8212	-1.3399	
348	1	3	0	-5.1623	0.46462	-1.0719	
349	1	3	0	-5.1832	-2.0745e-16	0.26798	
350	1	3	0	-4.9964	-1.3789	0.53595	
351	1	3	0	-4.8527	-1.8212	1.8758	
352	1	3	0	-4.1933	-3.0466	2.1438	
353	1	3	0	-3.9033	-3.4102	3.4837	
354	1	3	0	-2.8554	-4.3258	3.7517	
355	1	3	0	-2.4562	-4.5643	5.0916	
356	1	3	0	-1.1534	-5.0532	5.3595	
357	1	3	0	-4.1933	3.0466	-5.3595	
358	1	3	0	-4.8527	1.8212	-5.0916	
359	1	3	0	-4.9964	1.3789	-3.7517	
360	1	3	0	-5.1832	-2.0745e-16	-3.4837	
361	1	3	0	-5.1623	-0.46462	-2.1438	
362	1	3	0	-4.8527	-1.8212	-1.8758	
363	1	3	0	-4.6699	-2.2489	-0.53595	
364	1	3	0	-3.9033	-3.4102	-0.26798	
365	1	3	0	-3.5819	-3.7464	1.0719	
366	1	3	0	-2.4562	-4.5643	1.3399	
367	1	3	0	-2.0371	-4.7661	2.6798	
368	1	3	0	-0.69576	-5.1363	2.9477	
369	1	3	0	-0.23254	-5.178	4.2876	
370	1	3	0	1.1534	-5.0532	4.5556	
371	1	3	0	-5.0999	-0.92549	-4.5556	
372	1	3	0	-4.6699	-2.2489	-4.2876	
373	1	3	0	-4.4495	-2.6585	-2.9477	
374	1	3	0	-3.5819	-3.7464	-2.6798	
375	1	3	0	-3.2317	-4.0524	-1.3399	
376	1	3	0	-2.0371	-4.7661	-1.0719	
377	1	3	0	-1.6017	-4.9295	0.26798	
378	1	3	0	-0.23254	-5.178	0.53595	
379	1	3	0	0.23254	-5.178	1.8758	
380	1	3	0	1.6017	-4.9295	2.1438	
381	1	3	0	2.0371	-4.7661	3.4837	
382	1	3	0	3.2317	-4.0524	3.7517	
383	1	3	0	3.5819	-3.7464	5.0916	
384	1	3	0	4.4495	-2.6585	5.3595	
385	1	3	0	-4.1933	-3.0466	-5.3595	
386	1	3	0	-3.2317	-4.0524	-5.0916	
387	1	3	0	-2.8554	-4.3258	-3.7517	
388	1	3	0	-1.6017	-4.9295	-3.4837	
389	1	3	0	-1.1534	-5.0532	-2.1438	
390	1	3	0	0.23254	-5.178	-1.8758	
391	1	3	0	0.69576	-5.1363	-0.53595	
392	1	3	0	2.0371	-4.7661	-0.26798	
393	1	3	0	2.4562	-4.5643	1.0719	
394	1	3	0	3.5819	-3.7464	1.3399	
395	1	3	0	3.9033	-3.4102	2.6798	
396	1	3	0	4.6699	-2.2489	2.9477	
397	1	3	0	4.8527	-1.8212	4.2876	
398	1	3	0	5.1623	-0.46462	4.5556	
399	1	3	0	-0.69576	-5.1363	-4.5556	
400	1	3	0	0.69576	-5.1363	-4.2876	
401	1	3	0	1.1534	-5.0532	-2.9477	
402	1	3	0	2.4562	-4.5643	-2.6798	
403	1	3	0	2.8554	-4.3258	-1.3399	
404	1	3	0	3.9033	-3.4102	-1.0719	
405	1	3	0	4.1933	-3.0466	0.26798	
406	1	3	0	4.8527	-1.8212	0.53595	
407	1	3	0	4.9964	-1.3789	1.8758	
408	1	3	0	5.1832	-2.0745e-16	2.1438	
409	1	3	0	1.6017	-4.9295	-5.3595	
410	1	3	0	2.8554	-4.3258	-5.0916	
411	1	3	0	3.2317	-4.0524	-3.7517	
412	1	3	0	4.1933	-3.0466	-3.4837	
413	1	3	0	4.4495	-2.6585	-2.1438	
414	1	3	0	4.9964	-1.3789	-1.8758	
415	1	3	0	5.0999	-0.92549	-0.53595	
416	1	3	0	5.1623	0.46462	-0.26798	
417	1	3	0	4.6699	-2.2489	-4.5556	
418	1	3	0	5.0999	-0.92549	-4.2876	
419	1	3	0	5.1623	-0.46462	-2.9477	
420	1	3	0	5.0999	0.92549	-2.6798	
421	1	3	0	5.1623	0.46462	14.7387	
422	1	3	0	4.8527	1.8212	15.0067	
423	1	3	0	4.6699	2.2489	16.3466	
424	1	3	0	3.9033	3.4102	16.6146	
425	1	3	0	5.0999	0.92549	12.3269	
426	1	3	0	4.6699	2.2489	12.5949	
427	1	3	0	4.4495	2.6585	13.9348	
428	1	3	0	3.5819	3.7464	14.2028	
429	1	3	0	3.2317	4.0524	15.5427	
430	1	3	0	2.0371	4.7661	15.8106	
431	1	3	0	4.9964	1.3789	9.9151	
432	1	3	0	4.4495	2.6585	10.1831	
433	1	3	0	4.1933	3.0466	11.523	
434	1	3	0	3.2317	4.0524	11.791	
435	1	3	0	2.8554	4.3258	13.1309	
436	1	3	0	1.6017	4.9295	13.3988	
437	1	3	0	1.1534	5.0532	14.7387	
438	1	3	0	-0.23254	5.178	15.0067	
439	1	3	0	-0.69576	5.1363	16.3466	
440	1	3	0	-2.0371	4.7661	16.6146	
441	1	3	0	5.1832	-2.0745e-16	5.8955	
442	1	3	0	4.9964	1.3789	6.1635	
443	1	3	0	4.8527	1.8212	7.5034	
444	1	3	0	4.1933	3.0466	7.7713	
445	1	3	0	3.9033	3.4102	9.1112	
446	1	3	0	2.8554	4.3258	9.3792	
447	1	3	0	2.4562	4.5643	10.7191	
448	1	3	0	1.1534	5.0532	10.987	
449	1	3	0	0.69576	5.1363	12.3269	
450	1	3	0	-0.69576	5.1363	12.5949	
451	1	3	0	-1.1534	5.0532	13.9348	
452	1	3	0	-2.4562	4.5643	14.2028	
453	1	3	0	-2.8554	4.3258	15.5427	
454	1	3	0	-3.9033	3.4102	15.8106	
455	1	3	0	3.5819	3.7464	6.6994	
456	1	3	0	2.4562	4.5643	6.9674	
457	1	3	0	2.0371	4.7661	8.3073	
458	1	3	0	0.69576	5.1363	8.5753	
459	1	3	0	0.23254	5.178	9.9151	
460	1	3	0	-1.1534	5.0532	10.1831	
461	1	3	0	-1.6017	4.9295	11.523	
462	1	3	0	-2.8554	4.3258	11.791	
463	1	3	0	-3.2317	4.0524	13.1309	
464	1	3	0	-4.1933	3.0466	13.3988	
465	1	3	0	-4.4495	2.6585	14.7387	
466	1	3	0	-4.9964	1.3789	15.0067	
467	1	3	0	-5.0999	0.92549	16.3466	
468	1	3	0	-5.1623	-0.46462	16.6146	
469	1	3	0	1.6017	4.9295	5.8955	
470	1	3	0	0.23254	5.178	6.1635	
471	1	3	0	-0.23254	5.178	7.5034	
472	1	3	0	-1.6017	4.9295	7.7713	
473	1	3	0	-2.0371	4.7661	9.1112	
474	1	3	0	-3.2317	4.0524	9.3792	
475	1	3	0	-3.5819	3.7464	10.7191	
476	1	3	0	-4.4495	2.6585	10.987	
477	1	3	0	-4.6699	2.2489	12.3269	
478	1	3	0	-5.0999	0.92549	12.5949	
479	1	3	0	-5.1623	0.46462	13.9348	
480	1	3	0	-5.0999	-0.92549	14.2028	
481	1	3	0	-4.9964	-1.3789	15.5427	
482	1	3	0	-4.4495	-2.6585	15.8106	
483	1	3	0	-2.4562	4.5643	6.6994	
484	1	3	0	-3.5819	3.7464	6.9674	
485	1	3	0	-3.9033	3.4102	8.3073	
486	1	3	0	-4.6699	2.2489	8.5753	
487	1	3	0	-4.8527	1.8212	9.9151	
488	1	3	0	-5.1623	0.46462	10.1831	
489	1	3	0	-5.1832	-2.0745e-16	11.523	
490	1	3	0	-4.9964	-1.3789	11.791	
491	1	3	0	-4.8527	-1.8212	13.1309	
492	1	3	0	-4.1933	-3.0466	13.3988	
493	1	3	0	-3.9033	-3.4102	14.7387	
494	1	3	0	-2.8554	-4.3258	15.0067	
495	1	3	0	-2.4562	-4.5643	16.3466	
496	1	3	0	-1.1534	-5.0532	16.6146	
497	1	3	0	-4.1933	3.0466	5.8955	
498	1	3	0	-4.8527	1.8212	6.1635	
499	1	3	0	-4.9964	1.3789	7.5034	
500	1	3	0	-5.1832	-2.0745e-16	7.7713	
501	1	3	0	-5.1623	-0.46462	9.1112	
502	1	3	0	-4.8527	-1.8212	9.3792	
503	1	3	0	-4.6699	-2.2489	10.7191	
504	1	3	0	-3.9033	-3.4102	10.987	
505	1	3	0	-3.5819	-3.7464	12.3269	
506	1	3	0	-2.4562	-4.5643	12.5949	
507	1	3	0	-2.0371	-4.7661	13.9348	
508	1	3	0	-0.69576	-5.1363	14.2028	
509	1	3	0	-0.23254	-5.178	15.5427	
510	1	3	0	1.1534	-5.0532	15.8106	
511	1	3	0	-5.0999	-0.92549	6.6994	
512	1	3	0	-4.6699	-2.2489	6.9674	
513	1	3	0	-4.4495	-2.6585	8.3073	
514	1	3	0	-3.5819	-3.7464	8.5753	
515	1	3	0	-3.2317	-4.0524	9.9151	
516	1	3	0	-2.0371	-4.7661	10.1831	
517	1	3	0	-1.6017	-4.9295	11.523	
518	1	3	0	-0.23254	-5.178	11.791	
519	1	3	0	0.23254	-5.178	13.1309	
520	1	3	0	1.6017	-4.9295	13.3988	
521	1	3	0	2.0371	-4.7661	14.7387	
522	1	3	0	3.2317	-4.0524	15.0067	
523	1	3	0	3.5819	-3.7464	16.3466	
524	1	3	0	4.4495	-2.6585	16.6146	
525	1	3	0	-4.1933	-3.0466	5.8955	
526	1	3	0	-3.2317	-4.0524	6.1635	
527	1	3	0	-2.8554	-4.3258	7.5034	
528	1	3	0	-1.6017	-4.9295	7.7713	
529	1	3	0	-1.1534	-5.0532	9.1112	
530	1	3	0	0.23254	-5.178	9.3792	
531	1	3	0	0.69576	-5.1363	10.7191	
532	1	3	0	2.0371	-4.7661	10.987	
533	1	3	0	2.4562	-4.5643	12.3269	
534	1	3	0	3.5819	-3.7464	12.5949	
535	1	3	0	3.9033	-3.4102	13.9348	
536	1	3	0	4.6699	-2.2489	14.2028	
537	1	3	0	4.8527	-1.8212	15.5427	
538	1	3	0	5.1623	-0.46462	15.8106	
539	1	3	0	-0.69576	-5.1363	6.6994	
540	1	3	0	0.69576	-5.1363	6.9674	
541	1	3	0	1.1534	-5.0532	8.3073	
542	1	3	0	2.4562	-4.5643	8.5753	
543	1	3	0	2.8554	-4.3258	9.9151	
544	1	3	0	3.9033	-3.4102	10.1831	
545	1	3	0	4.1933	-3.0466	11.523	
546	1	3	0	4.8527	-1.8212	11.791	
547	1	3	0	4.9964	-1.3789	13.1309	
548	1	3	0	5.1832	-2.0745e-16	13.3988	
549	1	3	0	1.6017	-4.9295	5.8955	
550	1	3	0	2.8554	-4.3258	6.1635	
551	1	3	0	3.2317	-4.0524	7.5034	
552	1	3	0	4.1933	-3.0466	7.7713	
553	1	3	0	4.4495	-2.6585	9.1112	
554	1	3	0	4.9964	-1.3789	9.3792	
555	1	3	0	5.0999	-0.92549	10.7191	
556	1	3	0	5.1623	0.46462	10.987	
557	1	3	0	4.6699	-2.2489	6.6994	
558	1	3	0	5.0999	-0.92549	6.9674	
559	1	3	0	5.1623	-0.46462	8.3073	
560	1	3	0	5.0999	0.92549	8.5753	
561	1	3	0	5.1623	0.46462	25.9937	
562	1	3	0	4.8527	1.8212	26.2617	
563	1	3	0	4.6699	2.2489	27.6016	
564	1	3	0	3.9033	3.4102	27.8696	
565	1	3	0	5.0999	0.92549	23.582	
566	1	3	0	4.6699	2.2489	23.8499	
567	1	3	0	4.4495	2.6585	25.1898	
568	1	3	0	3.5819	3.7464	25.4578	
569	1	3	0	3.2317	4.0524	26.7977	
570	1	3	0	2.0371	4.7661	27.0657	
571	1	3	0	4.9964	1.3789	21.1702	
572	1	3	0	4.4495	2.6585	21.4381	
573	1	3	0	4.1933	3.0466	22.778	
574	1	3	0	3.2317	4.0524	23.046	
575	1	3	0	2.8554	4.3258	24.3859	
576	1	3	0	1.6017	4.9295	24.6539	
577	1	3	0	1.1534	5.0532	25.9937	
578	1	3	0	-0.23254	5.178	26.2617	
579	1	3	0	-0.69576	5.1363	27.6016	
580	1	3	0	-2.0371	4.7661	27.8696	
581	1	3	0	5.1832	-2.0745e-16	17.1505	
582	1	3	0	4.9964	1.3789	17.4185	
583	1	3	0	4.8527	1.8212	18.7584	
584	1	3	0	4.1933	3.0466	19.0264	
585	1	3	0	3.9033	3.4102	20.3662	
586	1	3	0	2.8554	4.3258	20.6342	
587	1	3	0	2.4562	4.5643	21.9741	
588	1	3	0	1.1534	5.0532	22.2421	
589	1	3	0	0.69576	5.1363	23.582	
590	1	3	0	-0.69576	5.1363	23.8499	
591	1	3	0	-1.1534	5.0532	25.1898	
592	1	3	0	-2.4562	4.5643	25.4578	
593	1	3	0	-2.8554	4.3258	26.7977	
594	1	3	0	-3.9033	3.4102	27.0657	
595	1	3	0	3.5819	3.7464	17.9544	
596	1	3	0	2.4562	4.5643	18.2224	
597	1	3	0	2.0371	4.7661	19.5623	
598	1	3	0	0.69576	5.1363	19.8303	
599	1	3	0	0.23254	5.178	21.1702	
600	1	3	0	-1.1534	5.0532	21.4381	
601	1	3	0	-1.6017	4.9295	22.778	
602	1	3	0	-2.8554	4.3258	23.046	
603	1	3	0	-3.2317	4.0524	24.3859	
604	1	3	0	-4.1933	3.0466	24.6539	
605	1	3	0	-4.4495	2.6585	25.9937	
606	1	3	0	-4.9964	1.3789	26.2617	
607	1	3	0	-5.0999	0.92549	27.6016	
608	1	3	0	-5.1623	-0.46462	27.8696	
609	1	3	0	1.6017	4.9295	17.1505	
610	1	3	0	0.23254	5.178	17.4185	
611	1	3	0	-0.23254	5.178	18.7584	
612	1	3	0	-1.6017	4.9295	19.0264	
613	1	3	0	-2.0371	4.7661	20.3662	
614	1	3	0	-3.2317	4.0524	20.6342	
615	1	3	0	-3.5819	3.7464	21.9741	
616	1	3	0	-4.4495	2.6585	22.2421	
617	1	3	0	-4.6699	2.2489	23.582	
618	1	3	0	-5.0999	0.92549	23.8499	
619	1	3	0	-5.1623	0.46462	25.1898	
620	1	3	0	-5.0999	-0.92549	25.4578	
621	1	3	0	-4.9964	-1.3789	26.7977	
622	1	3	0	-4.4495	-2.6585	27.0657	
623	1	3	0	-2.4562	4.5643	17.9544	
624	1	3	0	-3.5819	3.7464	18.2224	
625	1	3	0	-3.9033	3.4102	19.5623	
626	1	3	0	-4.6699	2.2489	19.8303	
627	1	3	0	-4.8527	1.8212	21.1702	
628	1	3	0	-5.1623	0.46462	21.4381	
629	1	3	0	-5.1832	-2.0745e-16	22.778	
630	1	3	0	-4.9964	-1.3789	23.046	
631	1	3	0	-4.8527	-1.8212	24.3859	
632	1	3	0	-4.1933	-3.0466	24.6539	
633	1	3	0	-3.9033	-3.4102	25.9937	
634	1	3	0	-2.8554	-4.3258	26.2617	
635	1	3	0	-2.4562	-4.5643	27.6016	
636	1	3	0	-1.1534	-5.0532	27.8696	
637	1	3	0	-4.1933	3.0466	17.1505	
638	1	3	0	-4.8527	1.8212	17.4185	
639	1	3	0	-4.9964	1.3789	18.7584	
640	1	3	0	-5.1832	-2.0745e-16	19.0264	
641	1	3	0	-5.1623	-0.46462	20.3662	
642	1	3	0	-4.8527	-1.8212	20.6342	
643	1	3	0	-4.6699	-2.2489	21.9741	
644	1	3	0	-3.9033	-3.4102	22.2421	
645	1	3	0	-3.5819	-3.7464	23.582	
646	1	3	0	-2.4562	-4.5643	23.8499	
647	1	3	0	-2.0371	-4.7661	25.1898	
648	1	3	0	-0.69576	-5.1363	25.4578	
649	1	3	0	-0.23254	-5.178	26.7977	
650	1	3	0	1.1534	-5.0532	27.0657	
651	1	3	0	-5.0999	-0.92549	17.9544	
652	1	3	0	-4.6699	-2.2489	18.2224	
653	1	3	0	-4.4495	-2.6585	19.5623	
654	1	3	0	-3.5819	-3.7464	19.8303	
655	1	3	0	-3.2317	-4.0524	21.1702	
656	1	3	0	-2.0371	-4.7661	21.4381	
657	1	3	0	-1.6017	-4.9295	22.778	
658	1	3	0	-0.23254	-5.178	23.046	
659	1	3	0	0.23254	-5.178	24.3859	
660	1	3	0	1.6017	-4.9295	24.6539	
661	1	3	0	2.0371	-4.7661	25.9937	
662	1	3	0	3.2317	-4.0524	26.2617	
663	1	3	0	3.5819	-3.7464	27.6016	
664	1	3	0	4.4495	-2.6585	27.8696	
665	1	3	0	-4.1933	-3.0466	17.1505	
666	1	3	0	-3.2317	-4.0524	17.4185	
667	1	3	0	-2.8554	-4.3258	18.7584	
668	1	3	0	-1.6017	-4.9295	19.0264	
669	1	3	0	-1.1534	-5.0532	20.3662	
670	1	3	0	0.23254	-5.178	20.6342	
671	1	3	0	0.69576	-5.1363	21.9741	
672	1	3	0	2.0371	-4.7661	22.2421	
673	1	3	0	2.4562	-4.5643	23.582	
674	1	3	0	3.5819	-3.7464	23.8499	
675	1	3	0	3.9033	-3.4102	25.1898	
676	1	3	0	4.6699	-2.2489	25.4578	
677	1	3	0	4.8527	-1.8212	26.7977	
678	1	3	0	5.1623	-0.46462	27.0657	
679	1	3	0	-0.69576	-5.1363	17.9544	
680	1	3	0	0.69576	-5.1363	18.2224	
681	1	3	0	1.1534	-5.0532	19.5623	
682	1	3	0	2.4562	-4.5643	19.8303	
683	1	3	0	2.8554	-4.3258	21.1702	
684	1	3	0	3.9033	-3.4102	21.4381	
685	1	3	0	4.1933	-3.0466	22.778	
686	1	3	0	4.8527	-1.8212	23.046	
687	1	3	0	4.9964	-1.3789	24.3859	
688	1	3	0	5.1832	-2.0745e-16	24.6539	
689	1	3	0	1.6017	-4.9295	17.1505	
690	1	3	0	2.8554	-4.3258	17.4185	
691	1	3	0	3.2317	-4.0524	18.7584	
692	1	3	0	4.1933	-3.0466	19.0264	
693	1	3	0	4.4495	-2.6585	20.3662	
694	1	3	0	4.9964	-1.3789	20.6342	
695	1	3	0	5.0999	-0.92549	21.9741	
696	1	3	0	5.1623	0.46462	22.2421	
697	1	3	0	4.6699	-2.2489	17.9544	
698	1	3	0	5.0999	-0.92549	18.2224	
699	1	3	0	5.1623	-0.46462	19.5623	
700	1	3	0	5.0999	0.92549	19.8303	
701	2	1	-1.1128	0	0	-26.6196	
702	2	2	0.5564	0.9584	0	-26.6196	
703	2	2	0.5564	-0.23996	0.92787	-26.6196	
704	3	1	-1.1128	0	0	-23.2196	
705	3	2	0.5564	0.9584	0	-23.2196	
706	3	2	0.5564	-0.23996	0.92787	-23.2196	
707	4	1	-1.1128	0	0	-19.8196	
708	4	2	0.5564	0.9584	0	-19.8196	
709	4	2	0.5564	-0.23996	0.92787	-19.8196	
710	5	1	-1.1128	0	0	-16.4196	
711	5	2	0.5564	0.9584	0	-16.4196	
712	5	2	0.5564	-0.23996	0.92787	-16.4196	
713	6	1	-1.1128	0	0	-13.0196	
714	6	2	0.5564	0.9584	0	-13.0196	
715	6	2	0.5564	-0.23996	0.92787	-13.0196	
716	7	1	-1.1128	0	0	-9.6196	
717	7	2	0.5564	0.9584	0	-9.6196	
718	7	2	0.5564	-0.23996	0.92787	-9.6196	
719	8	1	-1.1128	0	0	-6.2196	
720	8	2	0.5564	0.9584	0	-6.2196	
721	8	2	0.5564	-0.23996	0.92787	-6.2196	
722	9	1	-1.1128	0	0	-2.8196	
723	9	2	0.5564	0.9584	0	-2.8196	
724	9	2	0.5564	-0.23996	0.92787	-2.8196	
725	10	1	-1.1128	0	0	0.58045	
726	10	2	0.5564	0.9584	0	0.58045	
727	10	2	0.5564	-0.23996	0.92787	0.58045	
728	11	1	-1.1128	0	0	3.9804	
729	11	2	0.5564	0.9584	0	3.9804	
730	11	2	0.5564	-0.23996	0.92787	3.9804	
731	12	1	-1.1128	0	0	7.3804	
732	12	2	0.5564	0.9584	0	7.3804	
733	12	2	0.5564	-0.23996	0.92787	7.3804	
734	13	1	-1.1128	0	0	10.7804	
735	13	2	0.5564	0.9584	0	10.7804	
736	13	2	0.5564	-0.23996	0.92787	10.7804	
737	14	1	-1.1128	0	0	14.1804	
738	14	2	0.5564	0.9584	0	14.1804	
739	14	2	0.5564	-0.23996	0.92787	14.1804	
740	15	1	-1.1128	0	0	17.5804	
741	15	2	0.5564	0.9584	0	17.5804	
742	15	2	0.5564	-0.23996	0.92787	17.5804	
743	16	1	-1.1128	0	0	20.9804	
744	16	2	0.5564	0.9584	0	20.9804	
745	16	2	0.5564	-0.23996	0.92787	20.9804	
746	17	1	-1.1128	0	0	24.3804	
747	17	2	0.5564	0.9584	0	24.3804	
748	17	2	0.5564	-0.23996	0.92787	24.3804	

Bonds

1	1	701	702	
2	1	701	703	
3	1	704	705	
4	1	704	706	
5	1	707	708	
6	1	707	709	
7	1	710	711	
8	1	710	712	
9	1	713	714	
10	1	713	715	
11	1	716	717	
12	1	716	718	
13	1	719	720	
14	1	719	721	
15	1	722	723	
16	1	722	724	
17	1	725	726	
18	1	725	727	
19	1	728	729	
20	1	728	730	
21	1	731	732	
22	1	731	733	
23	1	734	735	
24	1	734	736	
25	1	737	738	
26	1	737	739	
27	1	740	741	
28	1	740	742	
29	1	743	744	
30	1	743	745	
31	1	746	747	
32	1	746	748	

Angles

1	1	702	701	703	
2	1	705	704	706	
3	1	708	707	709	
4	1	711	710	712	
5	1	714	713	715	
6	1	717	716	718	
7	1	720	719	721	
8	1	723	722	724	
9	1	726	725	727	
10	1	729	728	730	
11	1	732	731	733	
12	1	735	734	736	
13	1	738	737	739	
14	1	741	740	742	
15	1	744	743	745	
16	1	747	746	748	

