# LAMMPS data file 

1137 atoms
86 bonds
43 angles

4 atom types
1 bond types
1 angle types

-17.04 17.04 xlo xhi
-17.04 17.04 ylo yhi
-31.36 31.36 zlo zhi

Atoms

1 1 3 1.0 -15.62 -15.62 -39.879999999999995 
2 1 4 -1.0 -15.62 -12.78 -39.879999999999995 
3 1 4 -1.0 -12.78 -15.62 -39.879999999999995 
4 1 3 1.0 -12.78 -12.78 -39.879999999999995 
5 1 4 -1.0 -15.62 -15.62 -37.04 
6 1 3 1.0 -15.62 -12.78 -37.04 
7 1 3 1.0 -12.78 -15.62 -37.04 
8 1 4 -1.0 -12.78 -12.78 -37.04 
9 1 3 1.0 -15.62 -15.62 -34.2 
10 1 4 -1.0 -15.62 -12.78 -34.2 
11 1 4 -1.0 -12.78 -15.62 -34.2 
12 1 3 1.0 -12.78 -12.78 -34.2 
13 1 4 -1.0 -15.62 -15.62 -31.36 
14 1 3 1.0 -15.62 -12.78 -31.36 
15 1 3 1.0 -12.78 -15.62 -31.36 
16 1 4 -1.0 -12.78 -12.78 -31.36 
17 1 3 1.0 -15.62 -15.62 -28.52 
18 1 4 -1.0 -15.62 -12.78 -28.52 
19 1 4 -1.0 -12.78 -15.62 -28.52 
20 1 3 1.0 -12.78 -12.78 -28.52 
21 1 4 -1.0 -15.62 -15.62 -25.68 
22 1 3 1.0 -15.62 -12.78 -25.68 
23 1 3 1.0 -12.78 -15.62 -25.68 
24 1 4 -1.0 -12.78 -12.78 -25.68 
25 1 3 1.0 -15.62 -15.62 -22.84 
26 1 4 -1.0 -15.62 -12.78 -22.84 
27 1 4 -1.0 -12.78 -15.62 -22.84 
28 1 3 1.0 -12.78 -12.78 -22.84 
29 1 3 1.0 -15.62 -9.94 -39.879999999999995 
30 1 4 -1.0 -15.62 -7.1 -39.879999999999995 
31 1 4 -1.0 -12.78 -9.94 -39.879999999999995 
32 1 3 1.0 -12.78 -7.1 -39.879999999999995 
33 1 4 -1.0 -15.62 -9.94 -37.04 
34 1 3 1.0 -15.62 -7.1 -37.04 
35 1 3 1.0 -12.78 -9.94 -37.04 
36 1 4 -1.0 -12.78 -7.1 -37.04 
37 1 3 1.0 -15.62 -9.94 -34.2 
38 1 4 -1.0 -15.62 -7.1 -34.2 
39 1 4 -1.0 -12.78 -9.94 -34.2 
40 1 3 1.0 -12.78 -7.1 -34.2 
41 1 4 -1.0 -15.62 -9.94 -31.36 
42 1 3 1.0 -15.62 -7.1 -31.36 
43 1 3 1.0 -12.78 -9.94 -31.36 
44 1 4 -1.0 -12.78 -7.1 -31.36 
45 1 3 1.0 -15.62 -9.94 -28.52 
46 1 4 -1.0 -15.62 -7.1 -28.52 
47 1 4 -1.0 -12.78 -9.94 -28.52 
48 1 3 1.0 -12.78 -7.1 -28.52 
49 1 4 -1.0 -15.62 -9.94 -25.68 
50 1 3 1.0 -15.62 -7.1 -25.68 
51 1 3 1.0 -12.78 -9.94 -25.68 
52 1 4 -1.0 -12.78 -7.1 -25.68 
53 1 3 1.0 -15.62 -9.94 -22.84 
54 1 4 -1.0 -15.62 -7.1 -22.84 
55 1 4 -1.0 -12.78 -9.94 -22.84 
56 1 3 1.0 -12.78 -7.1 -22.84 
57 1 3 1.0 -15.62 -4.26 -39.879999999999995 
58 1 4 -1.0 -15.62 -1.42 -39.879999999999995 
59 1 4 -1.0 -12.78 -4.26 -39.879999999999995 
60 1 3 1.0 -12.78 -1.42 -39.879999999999995 
61 1 4 -1.0 -15.62 -4.26 -37.04 
62 1 3 1.0 -15.62 -1.42 -37.04 
63 1 3 1.0 -12.78 -4.26 -37.04 
64 1 4 -1.0 -12.78 -1.42 -37.04 
65 1 3 1.0 -15.62 -4.26 -34.2 
66 1 4 -1.0 -15.62 -1.42 -34.2 
67 1 4 -1.0 -12.78 -4.26 -34.2 
68 1 3 1.0 -12.78 -1.42 -34.2 
69 1 4 -1.0 -15.62 -4.26 -31.36 
70 1 3 1.0 -15.62 -1.42 -31.36 
71 1 3 1.0 -12.78 -4.26 -31.36 
72 1 4 -1.0 -12.78 -1.42 -31.36 
73 1 3 1.0 -15.62 -4.26 -28.52 
74 1 4 -1.0 -15.62 -1.42 -28.52 
75 1 4 -1.0 -12.78 -4.26 -28.52 
76 1 3 1.0 -12.78 -1.42 -28.52 
77 1 4 -1.0 -15.62 -4.26 -25.68 
78 1 3 1.0 -15.62 -1.42 -25.68 
79 1 3 1.0 -12.78 -4.26 -25.68 
80 1 4 -1.0 -12.78 -1.42 -25.68 
81 1 3 1.0 -15.62 -4.26 -22.84 
82 1 4 -1.0 -15.62 -1.42 -22.84 
83 1 4 -1.0 -12.78 -4.26 -22.84 
84 1 3 1.0 -12.78 -1.42 -22.84 
85 1 3 1.0 -15.62 1.42 -39.879999999999995 
86 1 4 -1.0 -15.62 4.26 -39.879999999999995 
87 1 4 -1.0 -12.78 1.42 -39.879999999999995 
88 1 3 1.0 -12.78 4.26 -39.879999999999995 
89 1 4 -1.0 -15.62 1.42 -37.04 
90 1 3 1.0 -15.62 4.26 -37.04 
91 1 3 1.0 -12.78 1.42 -37.04 
92 1 4 -1.0 -12.78 4.26 -37.04 
93 1 3 1.0 -15.62 1.42 -34.2 
94 1 4 -1.0 -15.62 4.26 -34.2 
95 1 4 -1.0 -12.78 1.42 -34.2 
96 1 3 1.0 -12.78 4.26 -34.2 
97 1 4 -1.0 -15.62 1.42 -31.36 
98 1 3 1.0 -15.62 4.26 -31.36 
99 1 3 1.0 -12.78 1.42 -31.36 
100 1 4 -1.0 -12.78 4.26 -31.36 
101 1 3 1.0 -15.62 1.42 -28.52 
102 1 4 -1.0 -15.62 4.26 -28.52 
103 1 4 -1.0 -12.78 1.42 -28.52 
104 1 3 1.0 -12.78 4.26 -28.52 
105 1 4 -1.0 -15.62 1.42 -25.68 
106 1 3 1.0 -15.62 4.26 -25.68 
107 1 3 1.0 -12.78 1.42 -25.68 
108 1 4 -1.0 -12.78 4.26 -25.68 
109 1 3 1.0 -15.62 1.42 -22.84 
110 1 4 -1.0 -15.62 4.26 -22.84 
111 1 4 -1.0 -12.78 1.42 -22.84 
112 1 3 1.0 -12.78 4.26 -22.84 
113 1 3 1.0 -15.62 7.1 -39.879999999999995 
114 1 4 -1.0 -15.62 9.94 -39.879999999999995 
115 1 4 -1.0 -12.78 7.1 -39.879999999999995 
116 1 3 1.0 -12.78 9.94 -39.879999999999995 
117 1 4 -1.0 -15.62 7.1 -37.04 
118 1 3 1.0 -15.62 9.94 -37.04 
119 1 3 1.0 -12.78 7.1 -37.04 
120 1 4 -1.0 -12.78 9.94 -37.04 
121 1 3 1.0 -15.62 7.1 -34.2 
122 1 4 -1.0 -15.62 9.94 -34.2 
123 1 4 -1.0 -12.78 7.1 -34.2 
124 1 3 1.0 -12.78 9.94 -34.2 
125 1 4 -1.0 -15.62 7.1 -31.36 
126 1 3 1.0 -15.62 9.94 -31.36 
127 1 3 1.0 -12.78 7.1 -31.36 
128 1 4 -1.0 -12.78 9.94 -31.36 
129 1 3 1.0 -15.62 7.1 -28.52 
130 1 4 -1.0 -15.62 9.94 -28.52 
131 1 4 -1.0 -12.78 7.1 -28.52 
132 1 3 1.0 -12.78 9.94 -28.52 
133 1 4 -1.0 -15.62 7.1 -25.68 
134 1 3 1.0 -15.62 9.94 -25.68 
135 1 3 1.0 -12.78 7.1 -25.68 
136 1 4 -1.0 -12.78 9.94 -25.68 
137 1 3 1.0 -15.62 7.1 -22.84 
138 1 4 -1.0 -15.62 9.94 -22.84 
139 1 4 -1.0 -12.78 7.1 -22.84 
140 1 3 1.0 -12.78 9.94 -22.84 
141 1 3 1.0 -15.62 12.78 -39.879999999999995 
142 1 4 -1.0 -15.62 15.62 -39.879999999999995 
143 1 4 -1.0 -12.78 12.78 -39.879999999999995 
144 1 3 1.0 -12.78 15.62 -39.879999999999995 
145 1 4 -1.0 -15.62 12.78 -37.04 
146 1 3 1.0 -15.62 15.62 -37.04 
147 1 3 1.0 -12.78 12.78 -37.04 
148 1 4 -1.0 -12.78 15.62 -37.04 
149 1 3 1.0 -15.62 12.78 -34.2 
150 1 4 -1.0 -15.62 15.62 -34.2 
151 1 4 -1.0 -12.78 12.78 -34.2 
152 1 3 1.0 -12.78 15.62 -34.2 
153 1 4 -1.0 -15.62 12.78 -31.36 
154 1 3 1.0 -15.62 15.62 -31.36 
155 1 3 1.0 -12.78 12.78 -31.36 
156 1 4 -1.0 -12.78 15.62 -31.36 
157 1 3 1.0 -15.62 12.78 -28.52 
158 1 4 -1.0 -15.62 15.62 -28.52 
159 1 4 -1.0 -12.78 12.78 -28.52 
160 1 3 1.0 -12.78 15.62 -28.52 
161 1 4 -1.0 -15.62 12.78 -25.68 
162 1 3 1.0 -15.62 15.62 -25.68 
163 1 3 1.0 -12.78 12.78 -25.68 
164 1 4 -1.0 -12.78 15.62 -25.68 
165 1 3 1.0 -15.62 12.78 -22.84 
166 1 4 -1.0 -15.62 15.62 -22.84 
167 1 4 -1.0 -12.78 12.78 -22.84 
168 1 3 1.0 -12.78 15.62 -22.84 
169 1 3 1.0 -9.94 -15.62 -39.879999999999995 
170 1 4 -1.0 -9.94 -12.78 -39.879999999999995 
171 1 4 -1.0 -7.1 -15.62 -39.879999999999995 
172 1 3 1.0 -7.1 -12.78 -39.879999999999995 
173 1 4 -1.0 -9.94 -15.62 -37.04 
174 1 3 1.0 -9.94 -12.78 -37.04 
175 1 3 1.0 -7.1 -15.62 -37.04 
176 1 4 -1.0 -7.1 -12.78 -37.04 
177 1 3 1.0 -9.94 -15.62 -34.2 
178 1 4 -1.0 -9.94 -12.78 -34.2 
179 1 4 -1.0 -7.1 -15.62 -34.2 
180 1 3 1.0 -7.1 -12.78 -34.2 
181 1 4 -1.0 -9.94 -15.62 -31.36 
182 1 3 1.0 -9.94 -12.78 -31.36 
183 1 3 1.0 -7.1 -15.62 -31.36 
184 1 4 -1.0 -7.1 -12.78 -31.36 
185 1 3 1.0 -9.94 -15.62 -28.52 
186 1 4 -1.0 -9.94 -12.78 -28.52 
187 1 4 -1.0 -7.1 -15.62 -28.52 
188 1 3 1.0 -7.1 -12.78 -28.52 
189 1 4 -1.0 -9.94 -15.62 -25.68 
190 1 3 1.0 -9.94 -12.78 -25.68 
191 1 3 1.0 -7.1 -15.62 -25.68 
192 1 4 -1.0 -7.1 -12.78 -25.68 
193 1 3 1.0 -9.94 -15.62 -22.84 
194 1 4 -1.0 -9.94 -12.78 -22.84 
195 1 4 -1.0 -7.1 -15.62 -22.84 
196 1 3 1.0 -7.1 -12.78 -22.84 
197 1 3 1.0 -9.94 -9.94 -39.879999999999995 
198 1 4 -1.0 -9.94 -7.1 -39.879999999999995 
199 1 4 -1.0 -7.1 -9.94 -39.879999999999995 
200 1 3 1.0 -7.1 -7.1 -39.879999999999995 
201 1 4 -1.0 -9.94 -9.94 -37.04 
202 1 3 1.0 -9.94 -7.1 -37.04 
203 1 3 1.0 -7.1 -9.94 -37.04 
204 1 4 -1.0 -7.1 -7.1 -37.04 
205 1 3 1.0 -9.94 -9.94 -34.2 
206 1 4 -1.0 -9.94 -7.1 -34.2 
207 1 4 -1.0 -7.1 -9.94 -34.2 
208 1 3 1.0 -7.1 -7.1 -34.2 
209 1 4 -1.0 -9.94 -9.94 -31.36 
210 1 3 1.0 -9.94 -7.1 -31.36 
211 1 3 1.0 -7.1 -9.94 -31.36 
212 1 4 -1.0 -7.1 -7.1 -31.36 
213 1 3 1.0 -9.94 -9.94 -28.52 
214 1 4 -1.0 -9.94 -7.1 -28.52 
215 1 4 -1.0 -7.1 -9.94 -28.52 
216 1 3 1.0 -7.1 -7.1 -28.52 
217 1 4 -1.0 -9.94 -9.94 -25.68 
218 1 3 1.0 -9.94 -7.1 -25.68 
219 1 3 1.0 -7.1 -9.94 -25.68 
220 1 4 -1.0 -7.1 -7.1 -25.68 
221 1 3 1.0 -9.94 -9.94 -22.84 
222 1 4 -1.0 -9.94 -7.1 -22.84 
223 1 4 -1.0 -7.1 -9.94 -22.84 
224 1 3 1.0 -7.1 -7.1 -22.84 
225 1 3 1.0 -9.94 -4.26 -39.879999999999995 
226 1 4 -1.0 -9.94 -1.42 -39.879999999999995 
227 1 4 -1.0 -7.1 -4.26 -39.879999999999995 
228 1 3 1.0 -7.1 -1.42 -39.879999999999995 
229 1 4 -1.0 -9.94 -4.26 -37.04 
230 1 3 1.0 -9.94 -1.42 -37.04 
231 1 3 1.0 -7.1 -4.26 -37.04 
232 1 4 -1.0 -7.1 -1.42 -37.04 
233 1 3 1.0 -9.94 -4.26 -34.2 
234 1 4 -1.0 -9.94 -1.42 -34.2 
235 1 4 -1.0 -7.1 -4.26 -34.2 
236 1 3 1.0 -7.1 -1.42 -34.2 
237 1 4 -1.0 -9.94 -4.26 -31.36 
238 1 3 1.0 -9.94 -1.42 -31.36 
239 1 3 1.0 -7.1 -4.26 -31.36 
240 1 4 -1.0 -7.1 -1.42 -31.36 
241 1 3 1.0 -9.94 -4.26 -28.52 
242 1 4 -1.0 -9.94 -1.42 -28.52 
243 1 4 -1.0 -7.1 -4.26 -28.52 
244 1 3 1.0 -7.1 -1.42 -28.52 
245 1 4 -1.0 -9.94 -4.26 -25.68 
246 1 3 1.0 -9.94 -1.42 -25.68 
247 1 3 1.0 -7.1 -4.26 -25.68 
248 1 4 -1.0 -7.1 -1.42 -25.68 
249 1 3 1.0 -9.94 -4.26 -22.84 
250 1 4 -1.0 -9.94 -1.42 -22.84 
251 1 4 -1.0 -7.1 -4.26 -22.84 
252 1 3 1.0 -7.1 -1.42 -22.84 
253 1 3 1.0 -9.94 1.42 -39.879999999999995 
254 1 4 -1.0 -9.94 4.26 -39.879999999999995 
255 1 4 -1.0 -7.1 1.42 -39.879999999999995 
256 1 3 1.0 -7.1 4.26 -39.879999999999995 
257 1 4 -1.0 -9.94 1.42 -37.04 
258 1 3 1.0 -9.94 4.26 -37.04 
259 1 3 1.0 -7.1 1.42 -37.04 
260 1 4 -1.0 -7.1 4.26 -37.04 
261 1 3 1.0 -9.94 1.42 -34.2 
262 1 4 -1.0 -9.94 4.26 -34.2 
263 1 4 -1.0 -7.1 1.42 -34.2 
264 1 3 1.0 -7.1 4.26 -34.2 
265 1 4 -1.0 -9.94 1.42 -31.36 
266 1 3 1.0 -9.94 4.26 -31.36 
267 1 3 1.0 -7.1 1.42 -31.36 
268 1 4 -1.0 -7.1 4.26 -31.36 
269 1 3 1.0 -9.94 1.42 -28.52 
270 1 4 -1.0 -9.94 4.26 -28.52 
271 1 4 -1.0 -7.1 1.42 -28.52 
272 1 3 1.0 -7.1 4.26 -28.52 
273 1 4 -1.0 -9.94 1.42 -25.68 
274 1 3 1.0 -9.94 4.26 -25.68 
275 1 3 1.0 -7.1 1.42 -25.68 
276 1 4 -1.0 -7.1 4.26 -25.68 
277 1 3 1.0 -9.94 1.42 -22.84 
278 1 4 -1.0 -9.94 4.26 -22.84 
279 1 4 -1.0 -7.1 1.42 -22.84 
280 1 3 1.0 -7.1 4.26 -22.84 
281 1 3 1.0 -9.94 7.1 -39.879999999999995 
282 1 4 -1.0 -9.94 9.94 -39.879999999999995 
283 1 4 -1.0 -7.1 7.1 -39.879999999999995 
284 1 3 1.0 -7.1 9.94 -39.879999999999995 
285 1 4 -1.0 -9.94 7.1 -37.04 
286 1 3 1.0 -9.94 9.94 -37.04 
287 1 3 1.0 -7.1 7.1 -37.04 
288 1 4 -1.0 -7.1 9.94 -37.04 
289 1 3 1.0 -9.94 7.1 -34.2 
290 1 4 -1.0 -9.94 9.94 -34.2 
291 1 4 -1.0 -7.1 7.1 -34.2 
292 1 3 1.0 -7.1 9.94 -34.2 
293 1 4 -1.0 -9.94 7.1 -31.36 
294 1 3 1.0 -9.94 9.94 -31.36 
295 1 3 1.0 -7.1 7.1 -31.36 
296 1 4 -1.0 -7.1 9.94 -31.36 
297 1 3 1.0 -9.94 7.1 -28.52 
298 1 4 -1.0 -9.94 9.94 -28.52 
299 1 4 -1.0 -7.1 7.1 -28.52 
300 1 3 1.0 -7.1 9.94 -28.52 
301 1 4 -1.0 -9.94 7.1 -25.68 
302 1 3 1.0 -9.94 9.94 -25.68 
303 1 3 1.0 -7.1 7.1 -25.68 
304 1 4 -1.0 -7.1 9.94 -25.68 
305 1 3 1.0 -9.94 7.1 -22.84 
306 1 4 -1.0 -9.94 9.94 -22.84 
307 1 4 -1.0 -7.1 7.1 -22.84 
308 1 3 1.0 -7.1 9.94 -22.84 
309 1 3 1.0 -9.94 12.78 -39.879999999999995 
310 1 4 -1.0 -9.94 15.62 -39.879999999999995 
311 1 4 -1.0 -7.1 12.78 -39.879999999999995 
312 1 3 1.0 -7.1 15.62 -39.879999999999995 
313 1 4 -1.0 -9.94 12.78 -37.04 
314 1 3 1.0 -9.94 15.62 -37.04 
315 1 3 1.0 -7.1 12.78 -37.04 
316 1 4 -1.0 -7.1 15.62 -37.04 
317 1 3 1.0 -9.94 12.78 -34.2 
318 1 4 -1.0 -9.94 15.62 -34.2 
319 1 4 -1.0 -7.1 12.78 -34.2 
320 1 3 1.0 -7.1 15.62 -34.2 
321 1 4 -1.0 -9.94 12.78 -31.36 
322 1 3 1.0 -9.94 15.62 -31.36 
323 1 3 1.0 -7.1 12.78 -31.36 
324 1 4 -1.0 -7.1 15.62 -31.36 
325 1 3 1.0 -9.94 12.78 -28.52 
326 1 4 -1.0 -9.94 15.62 -28.52 
327 1 4 -1.0 -7.1 12.78 -28.52 
328 1 3 1.0 -7.1 15.62 -28.52 
329 1 4 -1.0 -9.94 12.78 -25.68 
330 1 3 1.0 -9.94 15.62 -25.68 
331 1 3 1.0 -7.1 12.78 -25.68 
332 1 4 -1.0 -7.1 15.62 -25.68 
333 1 3 1.0 -9.94 12.78 -22.84 
334 1 4 -1.0 -9.94 15.62 -22.84 
335 1 4 -1.0 -7.1 12.78 -22.84 
336 1 3 1.0 -7.1 15.62 -22.84 
337 1 3 1.0 -4.26 -15.62 -39.879999999999995 
338 1 4 -1.0 -4.26 -12.78 -39.879999999999995 
339 1 4 -1.0 -1.42 -15.62 -39.879999999999995 
340 1 3 1.0 -1.42 -12.78 -39.879999999999995 
341 1 4 -1.0 -4.26 -15.62 -37.04 
342 1 3 1.0 -4.26 -12.78 -37.04 
343 1 3 1.0 -1.42 -15.62 -37.04 
344 1 4 -1.0 -1.42 -12.78 -37.04 
345 1 3 1.0 -4.26 -15.62 -34.2 
346 1 4 -1.0 -4.26 -12.78 -34.2 
347 1 4 -1.0 -1.42 -15.62 -34.2 
348 1 3 1.0 -1.42 -12.78 -34.2 
349 1 4 -1.0 -4.26 -15.62 -31.36 
350 1 3 1.0 -4.26 -12.78 -31.36 
351 1 3 1.0 -1.42 -15.62 -31.36 
352 1 4 -1.0 -1.42 -12.78 -31.36 
353 1 3 1.0 -4.26 -15.62 -28.52 
354 1 4 -1.0 -4.26 -12.78 -28.52 
355 1 4 -1.0 -1.42 -15.62 -28.52 
356 1 3 1.0 -1.42 -12.78 -28.52 
357 1 4 -1.0 -4.26 -15.62 -25.68 
358 1 3 1.0 -4.26 -12.78 -25.68 
359 1 3 1.0 -1.42 -15.62 -25.68 
360 1 4 -1.0 -1.42 -12.78 -25.68 
361 1 3 1.0 -4.26 -15.62 -22.84 
362 1 4 -1.0 -4.26 -12.78 -22.84 
363 1 4 -1.0 -1.42 -15.62 -22.84 
364 1 3 1.0 -1.42 -12.78 -22.84 
365 1 3 1.0 -4.26 -9.94 -39.879999999999995 
366 1 4 -1.0 -4.26 -7.1 -39.879999999999995 
367 1 4 -1.0 -1.42 -9.94 -39.879999999999995 
368 1 3 1.0 -1.42 -7.1 -39.879999999999995 
369 1 4 -1.0 -4.26 -9.94 -37.04 
370 1 3 1.0 -4.26 -7.1 -37.04 
371 1 3 1.0 -1.42 -9.94 -37.04 
372 1 4 -1.0 -1.42 -7.1 -37.04 
373 1 3 1.0 -4.26 -9.94 -34.2 
374 1 4 -1.0 -4.26 -7.1 -34.2 
375 1 4 -1.0 -1.42 -9.94 -34.2 
376 1 3 1.0 -1.42 -7.1 -34.2 
377 1 4 -1.0 -4.26 -9.94 -31.36 
378 1 3 1.0 -4.26 -7.1 -31.36 
379 1 3 1.0 -1.42 -9.94 -31.36 
380 1 4 -1.0 -1.42 -7.1 -31.36 
381 1 3 1.0 -4.26 -9.94 -28.52 
382 1 4 -1.0 -4.26 -7.1 -28.52 
383 1 4 -1.0 -1.42 -9.94 -28.52 
384 1 3 1.0 -1.42 -7.1 -28.52 
385 1 4 -1.0 -4.26 -9.94 -25.68 
386 1 3 1.0 -4.26 -7.1 -25.68 
387 1 3 1.0 -1.42 -9.94 -25.68 
388 1 4 -1.0 -1.42 -7.1 -25.68 
389 1 3 1.0 -4.26 -9.94 -22.84 
390 1 4 -1.0 -4.26 -7.1 -22.84 
391 1 4 -1.0 -1.42 -9.94 -22.84 
392 1 3 1.0 -1.42 -7.1 -22.84 
393 1 3 1.0 -4.26 -4.26 -39.879999999999995 
394 1 4 -1.0 -4.26 -1.42 -39.879999999999995 
395 1 4 -1.0 -1.42 -4.26 -39.879999999999995 
396 1 3 1.0 -1.42 -1.42 -39.879999999999995 
397 1 4 -1.0 -4.26 -4.26 -37.04 
398 1 3 1.0 -4.26 -1.42 -37.04 
399 1 3 1.0 -1.42 -4.26 -37.04 
400 1 4 -1.0 -1.42 -1.42 -37.04 
401 1 3 1.0 -4.26 -4.26 -34.2 
402 1 4 -1.0 -4.26 -1.42 -34.2 
403 1 4 -1.0 -1.42 -4.26 -34.2 
404 1 3 1.0 -1.42 -1.42 -34.2 
405 1 4 -1.0 -4.26 -4.26 -31.36 
406 1 3 1.0 -4.26 -1.42 -31.36 
407 1 3 1.0 -1.42 -4.26 -31.36 
408 1 4 -1.0 -1.42 -1.42 -31.36 
409 1 3 1.0 -4.26 -4.26 -28.52 
410 1 4 -1.0 -4.26 -1.42 -28.52 
411 1 4 -1.0 -1.42 -4.26 -28.52 
412 1 3 1.0 -1.42 -1.42 -28.52 
413 1 4 -1.0 -4.26 -4.26 -25.68 
414 1 3 1.0 -4.26 -1.42 -25.68 
415 1 3 1.0 -1.42 -4.26 -25.68 
416 1 4 -1.0 -1.42 -1.42 -25.68 
417 1 3 1.0 -4.26 -4.26 -22.84 
418 1 4 -1.0 -4.26 -1.42 -22.84 
419 1 4 -1.0 -1.42 -4.26 -22.84 
420 1 3 1.0 -1.42 -1.42 -22.84 
421 1 3 1.0 -4.26 1.42 -39.879999999999995 
422 1 4 -1.0 -4.26 4.26 -39.879999999999995 
423 1 4 -1.0 -1.42 1.42 -39.879999999999995 
424 1 3 1.0 -1.42 4.26 -39.879999999999995 
425 1 4 -1.0 -4.26 1.42 -37.04 
426 1 3 1.0 -4.26 4.26 -37.04 
427 1 3 1.0 -1.42 1.42 -37.04 
428 1 4 -1.0 -1.42 4.26 -37.04 
429 1 3 1.0 -4.26 1.42 -34.2 
430 1 4 -1.0 -4.26 4.26 -34.2 
431 1 4 -1.0 -1.42 1.42 -34.2 
432 1 3 1.0 -1.42 4.26 -34.2 
433 1 4 -1.0 -4.26 1.42 -31.36 
434 1 3 1.0 -4.26 4.26 -31.36 
435 1 3 1.0 -1.42 1.42 -31.36 
436 1 4 -1.0 -1.42 4.26 -31.36 
437 1 3 1.0 -4.26 1.42 -28.52 
438 1 4 -1.0 -4.26 4.26 -28.52 
439 1 4 -1.0 -1.42 1.42 -28.52 
440 1 3 1.0 -1.42 4.26 -28.52 
441 1 4 -1.0 -4.26 1.42 -25.68 
442 1 3 1.0 -4.26 4.26 -25.68 
443 1 3 1.0 -1.42 1.42 -25.68 
444 1 4 -1.0 -1.42 4.26 -25.68 
445 1 3 1.0 -4.26 1.42 -22.84 
446 1 4 -1.0 -4.26 4.26 -22.84 
447 1 4 -1.0 -1.42 1.42 -22.84 
448 1 3 1.0 -1.42 4.26 -22.84 
449 1 3 1.0 -4.26 7.1 -39.879999999999995 
450 1 4 -1.0 -4.26 9.94 -39.879999999999995 
451 1 4 -1.0 -1.42 7.1 -39.879999999999995 
452 1 3 1.0 -1.42 9.94 -39.879999999999995 
453 1 4 -1.0 -4.26 7.1 -37.04 
454 1 3 1.0 -4.26 9.94 -37.04 
455 1 3 1.0 -1.42 7.1 -37.04 
456 1 4 -1.0 -1.42 9.94 -37.04 
457 1 3 1.0 -4.26 7.1 -34.2 
458 1 4 -1.0 -4.26 9.94 -34.2 
459 1 4 -1.0 -1.42 7.1 -34.2 
460 1 3 1.0 -1.42 9.94 -34.2 
461 1 4 -1.0 -4.26 7.1 -31.36 
462 1 3 1.0 -4.26 9.94 -31.36 
463 1 3 1.0 -1.42 7.1 -31.36 
464 1 4 -1.0 -1.42 9.94 -31.36 
465 1 3 1.0 -4.26 7.1 -28.52 
466 1 4 -1.0 -4.26 9.94 -28.52 
467 1 4 -1.0 -1.42 7.1 -28.52 
468 1 3 1.0 -1.42 9.94 -28.52 
469 1 4 -1.0 -4.26 7.1 -25.68 
470 1 3 1.0 -4.26 9.94 -25.68 
471 1 3 1.0 -1.42 7.1 -25.68 
472 1 4 -1.0 -1.42 9.94 -25.68 
473 1 3 1.0 -4.26 7.1 -22.84 
474 1 4 -1.0 -4.26 9.94 -22.84 
475 1 4 -1.0 -1.42 7.1 -22.84 
476 1 3 1.0 -1.42 9.94 -22.84 
477 1 3 1.0 -4.26 12.78 -39.879999999999995 
478 1 4 -1.0 -4.26 15.62 -39.879999999999995 
479 1 4 -1.0 -1.42 12.78 -39.879999999999995 
480 1 3 1.0 -1.42 15.62 -39.879999999999995 
481 1 4 -1.0 -4.26 12.78 -37.04 
482 1 3 1.0 -4.26 15.62 -37.04 
483 1 3 1.0 -1.42 12.78 -37.04 
484 1 4 -1.0 -1.42 15.62 -37.04 
485 1 3 1.0 -4.26 12.78 -34.2 
486 1 4 -1.0 -4.26 15.62 -34.2 
487 1 4 -1.0 -1.42 12.78 -34.2 
488 1 3 1.0 -1.42 15.62 -34.2 
489 1 4 -1.0 -4.26 12.78 -31.36 
490 1 3 1.0 -4.26 15.62 -31.36 
491 1 3 1.0 -1.42 12.78 -31.36 
492 1 4 -1.0 -1.42 15.62 -31.36 
493 1 3 1.0 -4.26 12.78 -28.52 
494 1 4 -1.0 -4.26 15.62 -28.52 
495 1 4 -1.0 -1.42 12.78 -28.52 
496 1 3 1.0 -1.42 15.62 -28.52 
497 1 4 -1.0 -4.26 12.78 -25.68 
498 1 3 1.0 -4.26 15.62 -25.68 
499 1 3 1.0 -1.42 12.78 -25.68 
500 1 4 -1.0 -1.42 15.62 -25.68 
501 1 3 1.0 -4.26 12.78 -22.84 
502 1 4 -1.0 -4.26 15.62 -22.84 
503 1 4 -1.0 -1.42 12.78 -22.84 
504 1 3 1.0 -1.42 15.62 -22.84 
505 1 3 1.0 1.42 -15.62 -39.879999999999995 
506 1 4 -1.0 1.42 -12.78 -39.879999999999995 
507 1 4 -1.0 4.26 -15.62 -39.879999999999995 
508 1 3 1.0 4.26 -12.78 -39.879999999999995 
509 1 4 -1.0 1.42 -15.62 -37.04 
510 1 3 1.0 1.42 -12.78 -37.04 
511 1 3 1.0 4.26 -15.62 -37.04 
512 1 4 -1.0 4.26 -12.78 -37.04 
513 1 3 1.0 1.42 -15.62 -34.2 
514 1 4 -1.0 1.42 -12.78 -34.2 
515 1 4 -1.0 4.26 -15.62 -34.2 
516 1 3 1.0 4.26 -12.78 -34.2 
517 1 4 -1.0 1.42 -15.62 -31.36 
518 1 3 1.0 1.42 -12.78 -31.36 
519 1 3 1.0 4.26 -15.62 -31.36 
520 1 4 -1.0 4.26 -12.78 -31.36 
521 1 3 1.0 1.42 -15.62 -28.52 
522 1 4 -1.0 1.42 -12.78 -28.52 
523 1 4 -1.0 4.26 -15.62 -28.52 
524 1 3 1.0 4.26 -12.78 -28.52 
525 1 4 -1.0 1.42 -15.62 -25.68 
526 1 3 1.0 1.42 -12.78 -25.68 
527 1 3 1.0 4.26 -15.62 -25.68 
528 1 4 -1.0 4.26 -12.78 -25.68 
529 1 3 1.0 1.42 -15.62 -22.84 
530 1 4 -1.0 1.42 -12.78 -22.84 
531 1 4 -1.0 4.26 -15.62 -22.84 
532 1 3 1.0 4.26 -12.78 -22.84 
533 1 3 1.0 1.42 -9.94 -39.879999999999995 
534 1 4 -1.0 1.42 -7.1 -39.879999999999995 
535 1 4 -1.0 4.26 -9.94 -39.879999999999995 
536 1 3 1.0 4.26 -7.1 -39.879999999999995 
537 1 4 -1.0 1.42 -9.94 -37.04 
538 1 3 1.0 1.42 -7.1 -37.04 
539 1 3 1.0 4.26 -9.94 -37.04 
540 1 4 -1.0 4.26 -7.1 -37.04 
541 1 3 1.0 1.42 -9.94 -34.2 
542 1 4 -1.0 1.42 -7.1 -34.2 
543 1 4 -1.0 4.26 -9.94 -34.2 
544 1 3 1.0 4.26 -7.1 -34.2 
545 1 4 -1.0 1.42 -9.94 -31.36 
546 1 3 1.0 1.42 -7.1 -31.36 
547 1 3 1.0 4.26 -9.94 -31.36 
548 1 4 -1.0 4.26 -7.1 -31.36 
549 1 3 1.0 1.42 -9.94 -28.52 
550 1 4 -1.0 1.42 -7.1 -28.52 
551 1 4 -1.0 4.26 -9.94 -28.52 
552 1 3 1.0 4.26 -7.1 -28.52 
553 1 4 -1.0 1.42 -9.94 -25.68 
554 1 3 1.0 1.42 -7.1 -25.68 
555 1 3 1.0 4.26 -9.94 -25.68 
556 1 4 -1.0 4.26 -7.1 -25.68 
557 1 3 1.0 1.42 -9.94 -22.84 
558 1 4 -1.0 1.42 -7.1 -22.84 
559 1 4 -1.0 4.26 -9.94 -22.84 
560 1 3 1.0 4.26 -7.1 -22.84 
561 1 3 1.0 1.42 -4.26 -39.879999999999995 
562 1 4 -1.0 1.42 -1.42 -39.879999999999995 
563 1 4 -1.0 4.26 -4.26 -39.879999999999995 
564 1 3 1.0 4.26 -1.42 -39.879999999999995 
565 1 4 -1.0 1.42 -4.26 -37.04 
566 1 3 1.0 1.42 -1.42 -37.04 
567 1 3 1.0 4.26 -4.26 -37.04 
568 1 4 -1.0 4.26 -1.42 -37.04 
569 1 3 1.0 1.42 -4.26 -34.2 
570 1 4 -1.0 1.42 -1.42 -34.2 
571 1 4 -1.0 4.26 -4.26 -34.2 
572 1 3 1.0 4.26 -1.42 -34.2 
573 1 4 -1.0 1.42 -4.26 -31.36 
574 1 3 1.0 1.42 -1.42 -31.36 
575 1 3 1.0 4.26 -4.26 -31.36 
576 1 4 -1.0 4.26 -1.42 -31.36 
577 1 3 1.0 1.42 -4.26 -28.52 
578 1 4 -1.0 1.42 -1.42 -28.52 
579 1 4 -1.0 4.26 -4.26 -28.52 
580 1 3 1.0 4.26 -1.42 -28.52 
581 1 4 -1.0 1.42 -4.26 -25.68 
582 1 3 1.0 1.42 -1.42 -25.68 
583 1 3 1.0 4.26 -4.26 -25.68 
584 1 4 -1.0 4.26 -1.42 -25.68 
585 1 3 1.0 1.42 -4.26 -22.84 
586 1 4 -1.0 1.42 -1.42 -22.84 
587 1 4 -1.0 4.26 -4.26 -22.84 
588 1 3 1.0 4.26 -1.42 -22.84 
589 1 3 1.0 1.42 1.42 -39.879999999999995 
590 1 4 -1.0 1.42 4.26 -39.879999999999995 
591 1 4 -1.0 4.26 1.42 -39.879999999999995 
592 1 3 1.0 4.26 4.26 -39.879999999999995 
593 1 4 -1.0 1.42 1.42 -37.04 
594 1 3 1.0 1.42 4.26 -37.04 
595 1 3 1.0 4.26 1.42 -37.04 
596 1 4 -1.0 4.26 4.26 -37.04 
597 1 3 1.0 1.42 1.42 -34.2 
598 1 4 -1.0 1.42 4.26 -34.2 
599 1 4 -1.0 4.26 1.42 -34.2 
600 1 3 1.0 4.26 4.26 -34.2 
601 1 4 -1.0 1.42 1.42 -31.36 
602 1 3 1.0 1.42 4.26 -31.36 
603 1 3 1.0 4.26 1.42 -31.36 
604 1 4 -1.0 4.26 4.26 -31.36 
605 1 3 1.0 1.42 1.42 -28.52 
606 1 4 -1.0 1.42 4.26 -28.52 
607 1 4 -1.0 4.26 1.42 -28.52 
608 1 3 1.0 4.26 4.26 -28.52 
609 1 4 -1.0 1.42 1.42 -25.68 
610 1 3 1.0 1.42 4.26 -25.68 
611 1 3 1.0 4.26 1.42 -25.68 
612 1 4 -1.0 4.26 4.26 -25.68 
613 1 3 1.0 1.42 1.42 -22.84 
614 1 4 -1.0 1.42 4.26 -22.84 
615 1 4 -1.0 4.26 1.42 -22.84 
616 1 3 1.0 4.26 4.26 -22.84 
617 1 3 1.0 1.42 7.1 -39.879999999999995 
618 1 4 -1.0 1.42 9.94 -39.879999999999995 
619 1 4 -1.0 4.26 7.1 -39.879999999999995 
620 1 3 1.0 4.26 9.94 -39.879999999999995 
621 1 4 -1.0 1.42 7.1 -37.04 
622 1 3 1.0 1.42 9.94 -37.04 
623 1 3 1.0 4.26 7.1 -37.04 
624 1 4 -1.0 4.26 9.94 -37.04 
625 1 3 1.0 1.42 7.1 -34.2 
626 1 4 -1.0 1.42 9.94 -34.2 
627 1 4 -1.0 4.26 7.1 -34.2 
628 1 3 1.0 4.26 9.94 -34.2 
629 1 4 -1.0 1.42 7.1 -31.36 
630 1 3 1.0 1.42 9.94 -31.36 
631 1 3 1.0 4.26 7.1 -31.36 
632 1 4 -1.0 4.26 9.94 -31.36 
633 1 3 1.0 1.42 7.1 -28.52 
634 1 4 -1.0 1.42 9.94 -28.52 
635 1 4 -1.0 4.26 7.1 -28.52 
636 1 3 1.0 4.26 9.94 -28.52 
637 1 4 -1.0 1.42 7.1 -25.68 
638 1 3 1.0 1.42 9.94 -25.68 
639 1 3 1.0 4.26 7.1 -25.68 
640 1 4 -1.0 4.26 9.94 -25.68 
641 1 3 1.0 1.42 7.1 -22.84 
642 1 4 -1.0 1.42 9.94 -22.84 
643 1 4 -1.0 4.26 7.1 -22.84 
644 1 3 1.0 4.26 9.94 -22.84 
645 1 3 1.0 1.42 12.78 -39.879999999999995 
646 1 4 -1.0 1.42 15.62 -39.879999999999995 
647 1 4 -1.0 4.26 12.78 -39.879999999999995 
648 1 3 1.0 4.26 15.62 -39.879999999999995 
649 1 4 -1.0 1.42 12.78 -37.04 
650 1 3 1.0 1.42 15.62 -37.04 
651 1 3 1.0 4.26 12.78 -37.04 
652 1 4 -1.0 4.26 15.62 -37.04 
653 1 3 1.0 1.42 12.78 -34.2 
654 1 4 -1.0 1.42 15.62 -34.2 
655 1 4 -1.0 4.26 12.78 -34.2 
656 1 3 1.0 4.26 15.62 -34.2 
657 1 4 -1.0 1.42 12.78 -31.36 
658 1 3 1.0 1.42 15.62 -31.36 
659 1 3 1.0 4.26 12.78 -31.36 
660 1 4 -1.0 4.26 15.62 -31.36 
661 1 3 1.0 1.42 12.78 -28.52 
662 1 4 -1.0 1.42 15.62 -28.52 
663 1 4 -1.0 4.26 12.78 -28.52 
664 1 3 1.0 4.26 15.62 -28.52 
665 1 4 -1.0 1.42 12.78 -25.68 
666 1 3 1.0 1.42 15.62 -25.68 
667 1 3 1.0 4.26 12.78 -25.68 
668 1 4 -1.0 4.26 15.62 -25.68 
669 1 3 1.0 1.42 12.78 -22.84 
670 1 4 -1.0 1.42 15.62 -22.84 
671 1 4 -1.0 4.26 12.78 -22.84 
672 1 3 1.0 4.26 15.62 -22.84 
673 1 3 1.0 7.1 -15.62 -39.879999999999995 
674 1 4 -1.0 7.1 -12.78 -39.879999999999995 
675 1 4 -1.0 9.94 -15.62 -39.879999999999995 
676 1 3 1.0 9.94 -12.78 -39.879999999999995 
677 1 4 -1.0 7.1 -15.62 -37.04 
678 1 3 1.0 7.1 -12.78 -37.04 
679 1 3 1.0 9.94 -15.62 -37.04 
680 1 4 -1.0 9.94 -12.78 -37.04 
681 1 3 1.0 7.1 -15.62 -34.2 
682 1 4 -1.0 7.1 -12.78 -34.2 
683 1 4 -1.0 9.94 -15.62 -34.2 
684 1 3 1.0 9.94 -12.78 -34.2 
685 1 4 -1.0 7.1 -15.62 -31.36 
686 1 3 1.0 7.1 -12.78 -31.36 
687 1 3 1.0 9.94 -15.62 -31.36 
688 1 4 -1.0 9.94 -12.78 -31.36 
689 1 3 1.0 7.1 -15.62 -28.52 
690 1 4 -1.0 7.1 -12.78 -28.52 
691 1 4 -1.0 9.94 -15.62 -28.52 
692 1 3 1.0 9.94 -12.78 -28.52 
693 1 4 -1.0 7.1 -15.62 -25.68 
694 1 3 1.0 7.1 -12.78 -25.68 
695 1 3 1.0 9.94 -15.62 -25.68 
696 1 4 -1.0 9.94 -12.78 -25.68 
697 1 3 1.0 7.1 -15.62 -22.84 
698 1 4 -1.0 7.1 -12.78 -22.84 
699 1 4 -1.0 9.94 -15.62 -22.84 
700 1 3 1.0 9.94 -12.78 -22.84 
701 1 3 1.0 7.1 -9.94 -39.879999999999995 
702 1 4 -1.0 7.1 -7.1 -39.879999999999995 
703 1 4 -1.0 9.94 -9.94 -39.879999999999995 
704 1 3 1.0 9.94 -7.1 -39.879999999999995 
705 1 4 -1.0 7.1 -9.94 -37.04 
706 1 3 1.0 7.1 -7.1 -37.04 
707 1 3 1.0 9.94 -9.94 -37.04 
708 1 4 -1.0 9.94 -7.1 -37.04 
709 1 3 1.0 7.1 -9.94 -34.2 
710 1 4 -1.0 7.1 -7.1 -34.2 
711 1 4 -1.0 9.94 -9.94 -34.2 
712 1 3 1.0 9.94 -7.1 -34.2 
713 1 4 -1.0 7.1 -9.94 -31.36 
714 1 3 1.0 7.1 -7.1 -31.36 
715 1 3 1.0 9.94 -9.94 -31.36 
716 1 4 -1.0 9.94 -7.1 -31.36 
717 1 3 1.0 7.1 -9.94 -28.52 
718 1 4 -1.0 7.1 -7.1 -28.52 
719 1 4 -1.0 9.94 -9.94 -28.52 
720 1 3 1.0 9.94 -7.1 -28.52 
721 1 4 -1.0 7.1 -9.94 -25.68 
722 1 3 1.0 7.1 -7.1 -25.68 
723 1 3 1.0 9.94 -9.94 -25.68 
724 1 4 -1.0 9.94 -7.1 -25.68 
725 1 3 1.0 7.1 -9.94 -22.84 
726 1 4 -1.0 7.1 -7.1 -22.84 
727 1 4 -1.0 9.94 -9.94 -22.84 
728 1 3 1.0 9.94 -7.1 -22.84 
729 1 3 1.0 7.1 -4.26 -39.879999999999995 
730 1 4 -1.0 7.1 -1.42 -39.879999999999995 
731 1 4 -1.0 9.94 -4.26 -39.879999999999995 
732 1 3 1.0 9.94 -1.42 -39.879999999999995 
733 1 4 -1.0 7.1 -4.26 -37.04 
734 1 3 1.0 7.1 -1.42 -37.04 
735 1 3 1.0 9.94 -4.26 -37.04 
736 1 4 -1.0 9.94 -1.42 -37.04 
737 1 3 1.0 7.1 -4.26 -34.2 
738 1 4 -1.0 7.1 -1.42 -34.2 
739 1 4 -1.0 9.94 -4.26 -34.2 
740 1 3 1.0 9.94 -1.42 -34.2 
741 1 4 -1.0 7.1 -4.26 -31.36 
742 1 3 1.0 7.1 -1.42 -31.36 
743 1 3 1.0 9.94 -4.26 -31.36 
744 1 4 -1.0 9.94 -1.42 -31.36 
745 1 3 1.0 7.1 -4.26 -28.52 
746 1 4 -1.0 7.1 -1.42 -28.52 
747 1 4 -1.0 9.94 -4.26 -28.52 
748 1 3 1.0 9.94 -1.42 -28.52 
749 1 4 -1.0 7.1 -4.26 -25.68 
750 1 3 1.0 7.1 -1.42 -25.68 
751 1 3 1.0 9.94 -4.26 -25.68 
752 1 4 -1.0 9.94 -1.42 -25.68 
753 1 3 1.0 7.1 -4.26 -22.84 
754 1 4 -1.0 7.1 -1.42 -22.84 
755 1 4 -1.0 9.94 -4.26 -22.84 
756 1 3 1.0 9.94 -1.42 -22.84 
757 1 3 1.0 7.1 1.42 -39.879999999999995 
758 1 4 -1.0 7.1 4.26 -39.879999999999995 
759 1 4 -1.0 9.94 1.42 -39.879999999999995 
760 1 3 1.0 9.94 4.26 -39.879999999999995 
761 1 4 -1.0 7.1 1.42 -37.04 
762 1 3 1.0 7.1 4.26 -37.04 
763 1 3 1.0 9.94 1.42 -37.04 
764 1 4 -1.0 9.94 4.26 -37.04 
765 1 3 1.0 7.1 1.42 -34.2 
766 1 4 -1.0 7.1 4.26 -34.2 
767 1 4 -1.0 9.94 1.42 -34.2 
768 1 3 1.0 9.94 4.26 -34.2 
769 1 4 -1.0 7.1 1.42 -31.36 
770 1 3 1.0 7.1 4.26 -31.36 
771 1 3 1.0 9.94 1.42 -31.36 
772 1 4 -1.0 9.94 4.26 -31.36 
773 1 3 1.0 7.1 1.42 -28.52 
774 1 4 -1.0 7.1 4.26 -28.52 
775 1 4 -1.0 9.94 1.42 -28.52 
776 1 3 1.0 9.94 4.26 -28.52 
777 1 4 -1.0 7.1 1.42 -25.68 
778 1 3 1.0 7.1 4.26 -25.68 
779 1 3 1.0 9.94 1.42 -25.68 
780 1 4 -1.0 9.94 4.26 -25.68 
781 1 3 1.0 7.1 1.42 -22.84 
782 1 4 -1.0 7.1 4.26 -22.84 
783 1 4 -1.0 9.94 1.42 -22.84 
784 1 3 1.0 9.94 4.26 -22.84 
785 1 3 1.0 7.1 7.1 -39.879999999999995 
786 1 4 -1.0 7.1 9.94 -39.879999999999995 
787 1 4 -1.0 9.94 7.1 -39.879999999999995 
788 1 3 1.0 9.94 9.94 -39.879999999999995 
789 1 4 -1.0 7.1 7.1 -37.04 
790 1 3 1.0 7.1 9.94 -37.04 
791 1 3 1.0 9.94 7.1 -37.04 
792 1 4 -1.0 9.94 9.94 -37.04 
793 1 3 1.0 7.1 7.1 -34.2 
794 1 4 -1.0 7.1 9.94 -34.2 
795 1 4 -1.0 9.94 7.1 -34.2 
796 1 3 1.0 9.94 9.94 -34.2 
797 1 4 -1.0 7.1 7.1 -31.36 
798 1 3 1.0 7.1 9.94 -31.36 
799 1 3 1.0 9.94 7.1 -31.36 
800 1 4 -1.0 9.94 9.94 -31.36 
801 1 3 1.0 7.1 7.1 -28.52 
802 1 4 -1.0 7.1 9.94 -28.52 
803 1 4 -1.0 9.94 7.1 -28.52 
804 1 3 1.0 9.94 9.94 -28.52 
805 1 4 -1.0 7.1 7.1 -25.68 
806 1 3 1.0 7.1 9.94 -25.68 
807 1 3 1.0 9.94 7.1 -25.68 
808 1 4 -1.0 9.94 9.94 -25.68 
809 1 3 1.0 7.1 7.1 -22.84 
810 1 4 -1.0 7.1 9.94 -22.84 
811 1 4 -1.0 9.94 7.1 -22.84 
812 1 3 1.0 9.94 9.94 -22.84 
813 1 3 1.0 7.1 12.78 -39.879999999999995 
814 1 4 -1.0 7.1 15.62 -39.879999999999995 
815 1 4 -1.0 9.94 12.78 -39.879999999999995 
816 1 3 1.0 9.94 15.62 -39.879999999999995 
817 1 4 -1.0 7.1 12.78 -37.04 
818 1 3 1.0 7.1 15.62 -37.04 
819 1 3 1.0 9.94 12.78 -37.04 
820 1 4 -1.0 9.94 15.62 -37.04 
821 1 3 1.0 7.1 12.78 -34.2 
822 1 4 -1.0 7.1 15.62 -34.2 
823 1 4 -1.0 9.94 12.78 -34.2 
824 1 3 1.0 9.94 15.62 -34.2 
825 1 4 -1.0 7.1 12.78 -31.36 
826 1 3 1.0 7.1 15.62 -31.36 
827 1 3 1.0 9.94 12.78 -31.36 
828 1 4 -1.0 9.94 15.62 -31.36 
829 1 3 1.0 7.1 12.78 -28.52 
830 1 4 -1.0 7.1 15.62 -28.52 
831 1 4 -1.0 9.94 12.78 -28.52 
832 1 3 1.0 9.94 15.62 -28.52 
833 1 4 -1.0 7.1 12.78 -25.68 
834 1 3 1.0 7.1 15.62 -25.68 
835 1 3 1.0 9.94 12.78 -25.68 
836 1 4 -1.0 9.94 15.62 -25.68 
837 1 3 1.0 7.1 12.78 -22.84 
838 1 4 -1.0 7.1 15.62 -22.84 
839 1 4 -1.0 9.94 12.78 -22.84 
840 1 3 1.0 9.94 15.62 -22.84 
841 1 3 1.0 12.78 -15.62 -39.879999999999995 
842 1 4 -1.0 12.78 -12.78 -39.879999999999995 
843 1 4 -1.0 15.62 -15.62 -39.879999999999995 
844 1 3 1.0 15.62 -12.78 -39.879999999999995 
845 1 4 -1.0 12.78 -15.62 -37.04 
846 1 3 1.0 12.78 -12.78 -37.04 
847 1 3 1.0 15.62 -15.62 -37.04 
848 1 4 -1.0 15.62 -12.78 -37.04 
849 1 3 1.0 12.78 -15.62 -34.2 
850 1 4 -1.0 12.78 -12.78 -34.2 
851 1 4 -1.0 15.62 -15.62 -34.2 
852 1 3 1.0 15.62 -12.78 -34.2 
853 1 4 -1.0 12.78 -15.62 -31.36 
854 1 3 1.0 12.78 -12.78 -31.36 
855 1 3 1.0 15.62 -15.62 -31.36 
856 1 4 -1.0 15.62 -12.78 -31.36 
857 1 3 1.0 12.78 -15.62 -28.52 
858 1 4 -1.0 12.78 -12.78 -28.52 
859 1 4 -1.0 15.62 -15.62 -28.52 
860 1 3 1.0 15.62 -12.78 -28.52 
861 1 4 -1.0 12.78 -15.62 -25.68 
862 1 3 1.0 12.78 -12.78 -25.68 
863 1 3 1.0 15.62 -15.62 -25.68 
864 1 4 -1.0 15.62 -12.78 -25.68 
865 1 3 1.0 12.78 -15.62 -22.84 
866 1 4 -1.0 12.78 -12.78 -22.84 
867 1 4 -1.0 15.62 -15.62 -22.84 
868 1 3 1.0 15.62 -12.78 -22.84 
869 1 3 1.0 12.78 -9.94 -39.879999999999995 
870 1 4 -1.0 12.78 -7.1 -39.879999999999995 
871 1 4 -1.0 15.62 -9.94 -39.879999999999995 
872 1 3 1.0 15.62 -7.1 -39.879999999999995 
873 1 4 -1.0 12.78 -9.94 -37.04 
874 1 3 1.0 12.78 -7.1 -37.04 
875 1 3 1.0 15.62 -9.94 -37.04 
876 1 4 -1.0 15.62 -7.1 -37.04 
877 1 3 1.0 12.78 -9.94 -34.2 
878 1 4 -1.0 12.78 -7.1 -34.2 
879 1 4 -1.0 15.62 -9.94 -34.2 
880 1 3 1.0 15.62 -7.1 -34.2 
881 1 4 -1.0 12.78 -9.94 -31.36 
882 1 3 1.0 12.78 -7.1 -31.36 
883 1 3 1.0 15.62 -9.94 -31.36 
884 1 4 -1.0 15.62 -7.1 -31.36 
885 1 3 1.0 12.78 -9.94 -28.52 
886 1 4 -1.0 12.78 -7.1 -28.52 
887 1 4 -1.0 15.62 -9.94 -28.52 
888 1 3 1.0 15.62 -7.1 -28.52 
889 1 4 -1.0 12.78 -9.94 -25.68 
890 1 3 1.0 12.78 -7.1 -25.68 
891 1 3 1.0 15.62 -9.94 -25.68 
892 1 4 -1.0 15.62 -7.1 -25.68 