# System

15057 atoms
7890 bonds
5067 angles
2928 dihedrals
504 impropers

6 atom types
3 bond types
3 angle types
3 dihedral types
2 improper types
extra bond per atom 2
extra angle per atom 1
extra special per atom 2
-41.7         41.7 xlo xhi
-8.5223      8.5223 ylo yhi
-67.51        67.51 zlo zhi

Atoms

1	1	1	2	-40.6575	-7.4798	50	
2	1	2	-2	-38.5725	-7.4798	50	
3	1	2	-2	-40.6575	-5.3948	50	
4	1	1	2	-38.5725	-5.3948	50	
5	1	2	-2	-40.6575	-7.4798	52.085	
6	1	1	2	-38.5725	-7.4798	52.085	
7	1	1	2	-40.6575	-5.3948	52.085	
8	1	2	-2	-38.5725	-5.3948	52.085	
9	1	1	2	-36.4875	-7.4798	50	
10	1	2	-2	-34.4025	-7.4798	50	
11	1	2	-2	-36.4875	-5.3948	50	
12	1	1	2	-34.4025	-5.3948	50	
13	1	2	-2	-36.4875	-7.4798	52.085	
14	1	1	2	-34.4025	-7.4798	52.085	
15	1	1	2	-36.4875	-5.3948	52.085	
16	1	2	-2	-34.4025	-5.3948	52.085	
17	1	1	2	-32.3175	-7.4798	50	
18	1	2	-2	-30.2325	-7.4798	50	
19	1	2	-2	-32.3175	-5.3948	50	
20	1	1	2	-30.2325	-5.3948	50	
21	1	2	-2	-32.3175	-7.4798	52.085	
22	1	1	2	-30.2325	-7.4798	52.085	
23	1	1	2	-32.3175	-5.3948	52.085	
24	1	2	-2	-30.2325	-5.3948	52.085	
25	1	1	2	-28.1475	-7.4798	50	
26	1	2	-2	-26.0625	-7.4798	50	
27	1	2	-2	-28.1475	-5.3948	50	
28	1	1	2	-26.0625	-5.3948	50	
29	1	2	-2	-28.1475	-7.4798	52.085	
30	1	1	2	-26.0625	-7.4798	52.085	
31	1	1	2	-28.1475	-5.3948	52.085	
32	1	2	-2	-26.0625	-5.3948	52.085	
33	1	1	2	-23.9775	-7.4798	50	
34	1	2	-2	-21.8925	-7.4798	50	
35	1	2	-2	-23.9775	-5.3948	50	
36	1	1	2	-21.8925	-5.3948	50	
37	1	2	-2	-23.9775	-7.4798	52.085	
38	1	1	2	-21.8925	-7.4798	52.085	
39	1	1	2	-23.9775	-5.3948	52.085	
40	1	2	-2	-21.8925	-5.3948	52.085	
41	1	1	2	-19.8075	-7.4798	50	
42	1	2	-2	-17.7225	-7.4798	50	
43	1	2	-2	-19.8075	-5.3948	50	
44	1	1	2	-17.7225	-5.3948	50	
45	1	2	-2	-19.8075	-7.4798	52.085	
46	1	1	2	-17.7225	-7.4798	52.085	
47	1	1	2	-19.8075	-5.3948	52.085	
48	1	2	-2	-17.7225	-5.3948	52.085	
49	1	1	2	-15.6375	-7.4798	50	
50	1	2	-2	-13.5525	-7.4798	50	
51	1	2	-2	-15.6375	-5.3948	50	
52	1	1	2	-13.5525	-5.3948	50	
53	1	2	-2	-15.6375	-7.4798	52.085	
54	1	1	2	-13.5525	-7.4798	52.085	
55	1	1	2	-15.6375	-5.3948	52.085	
56	1	2	-2	-13.5525	-5.3948	52.085	
57	1	1	2	-11.4675	-7.4798	50	
58	1	2	-2	-9.3825	-7.4798	50	
59	1	2	-2	-11.4675	-5.3948	50	
60	1	1	2	-9.3825	-5.3948	50	
61	1	2	-2	-11.4675	-7.4798	52.085	
62	1	1	2	-9.3825	-7.4798	52.085	
63	1	1	2	-11.4675	-5.3948	52.085	
64	1	2	-2	-9.3825	-5.3948	52.085	
65	1	1	2	-7.2975	-7.4798	50	
66	1	2	-2	-5.2125	-7.4798	50	
67	1	2	-2	-7.2975	-5.3948	50	
68	1	1	2	-5.2125	-5.3948	50	
69	1	2	-2	-7.2975	-7.4798	52.085	
70	1	1	2	-5.2125	-7.4798	52.085	
71	1	1	2	-7.2975	-5.3948	52.085	
72	1	2	-2	-5.2125	-5.3948	52.085	
73	1	1	2	-3.1275	-7.4798	50	
74	1	2	-2	-1.0425	-7.4798	50	
75	1	2	-2	-3.1275	-5.3948	50	
76	1	1	2	-1.0425	-5.3948	50	
77	1	2	-2	-3.1275	-7.4798	52.085	
78	1	1	2	-1.0425	-7.4798	52.085	
79	1	1	2	-3.1275	-5.3948	52.085	
80	1	2	-2	-1.0425	-5.3948	52.085	
81	1	1	2	1.0425	-7.4798	50	
82	1	2	-2	3.1275	-7.4798	50	
83	1	2	-2	1.0425	-5.3948	50	
84	1	1	2	3.1275	-5.3948	50	
85	1	2	-2	1.0425	-7.4798	52.085	
86	1	1	2	3.1275	-7.4798	52.085	
87	1	1	2	1.0425	-5.3948	52.085	
88	1	2	-2	3.1275	-5.3948	52.085	
89	1	1	2	5.2125	-7.4798	50	
90	1	2	-2	7.2975	-7.4798	50	
91	1	2	-2	5.2125	-5.3948	50	
92	1	1	2	7.2975	-5.3948	50	
93	1	2	-2	5.2125	-7.4798	52.085	
94	1	1	2	7.2975	-7.4798	52.085	
95	1	1	2	5.2125	-5.3948	52.085	
96	1	2	-2	7.2975	-5.3948	52.085	
97	1	1	2	9.3825	-7.4798	50	
98	1	2	-2	11.4675	-7.4798	50	
99	1	2	-2	9.3825	-5.3948	50	
100	1	1	2	11.4675	-5.3948	50	
101	1	2	-2	9.3825	-7.4798	52.085	
102	1	1	2	11.4675	-7.4798	52.085	
103	1	1	2	9.3825	-5.3948	52.085	
104	1	2	-2	11.4675	-5.3948	52.085	
105	1	1	2	13.5525	-7.4798	50	
106	1	2	-2	15.6375	-7.4798	50	
107	1	2	-2	13.5525	-5.3948	50	
108	1	1	2	15.6375	-5.3948	50	
109	1	2	-2	13.5525	-7.4798	52.085	
110	1	1	2	15.6375	-7.4798	52.085	
111	1	1	2	13.5525	-5.3948	52.085	
112	1	2	-2	15.6375	-5.3948	52.085	
113	1	1	2	17.7225	-7.4798	50	
114	1	2	-2	19.8075	-7.4798	50	
115	1	2	-2	17.7225	-5.3948	50	
116	1	1	2	19.8075	-5.3948	50	
117	1	2	-2	17.7225	-7.4798	52.085	
118	1	1	2	19.8075	-7.4798	52.085	
119	1	1	2	17.7225	-5.3948	52.085	
120	1	2	-2	19.8075	-5.3948	52.085	
121	1	1	2	21.8925	-7.4798	50	
122	1	2	-2	23.9775	-7.4798	50	
123	1	2	-2	21.8925	-5.3948	50	
124	1	1	2	23.9775	-5.3948	50	
125	1	2	-2	21.8925	-7.4798	52.085	
126	1	1	2	23.9775	-7.4798	52.085	
127	1	1	2	21.8925	-5.3948	52.085	
128	1	2	-2	23.9775	-5.3948	52.085	
129	1	1	2	26.0625	-7.4798	50	
130	1	2	-2	28.1475	-7.4798	50	
131	1	2	-2	26.0625	-5.3948	50	
132	1	1	2	28.1475	-5.3948	50	
133	1	2	-2	26.0625	-7.4798	52.085	
134	1	1	2	28.1475	-7.4798	52.085	
135	1	1	2	26.0625	-5.3948	52.085	
136	1	2	-2	28.1475	-5.3948	52.085	
137	1	1	2	30.2325	-7.4798	50	
138	1	2	-2	32.3175	-7.4798	50	
139	1	2	-2	30.2325	-5.3948	50	
140	1	1	2	32.3175	-5.3948	50	
141	1	2	-2	30.2325	-7.4798	52.085	
142	1	1	2	32.3175	-7.4798	52.085	
143	1	1	2	30.2325	-5.3948	52.085	
144	1	2	-2	32.3175	-5.3948	52.085	
145	1	1	2	34.4025	-7.4798	50	
146	1	2	-2	36.4875	-7.4798	50	
147	1	2	-2	34.4025	-5.3948	50	
148	1	1	2	36.4875	-5.3948	50	
149	1	2	-2	34.4025	-7.4798	52.085	
150	1	1	2	36.4875	-7.4798	52.085	
151	1	1	2	34.4025	-5.3948	52.085	
152	1	2	-2	36.4875	-5.3948	52.085	
153	1	1	2	38.5725	-7.4798	50	
154	1	2	-2	40.6575	-7.4798	50	
155	1	2	-2	38.5725	-5.3948	50	
156	1	1	2	40.6575	-5.3948	50	
157	1	2	-2	38.5725	-7.4798	52.085	
158	1	1	2	40.6575	-7.4798	52.085	
159	1	1	2	38.5725	-5.3948	52.085	
160	1	2	-2	40.6575	-5.3948	52.085	
161	1	1	2	-40.6575	-3.3098	50	
162	1	2	-2	-38.5725	-3.3098	50	
163	1	2	-2	-40.6575	-1.2248	50	
164	1	1	2	-38.5725	-1.2248	50	
165	1	2	-2	-40.6575	-3.3098	52.085	
166	1	1	2	-38.5725	-3.3098	52.085	
167	1	1	2	-40.6575	-1.2248	52.085	
168	1	2	-2	-38.5725	-1.2248	52.085	
169	1	1	2	-36.4875	-3.3098	50	
170	1	2	-2	-34.4025	-3.3098	50	
171	1	2	-2	-36.4875	-1.2248	50	
172	1	1	2	-34.4025	-1.2248	50	
173	1	2	-2	-36.4875	-3.3098	52.085	
174	1	1	2	-34.4025	-3.3098	52.085	
175	1	1	2	-36.4875	-1.2248	52.085	
176	1	2	-2	-34.4025	-1.2248	52.085	
177	1	1	2	-32.3175	-3.3098	50	
178	1	2	-2	-30.2325	-3.3098	50	
179	1	2	-2	-32.3175	-1.2248	50	
180	1	1	2	-30.2325	-1.2248	50	
181	1	2	-2	-32.3175	-3.3098	52.085	
182	1	1	2	-30.2325	-3.3098	52.085	
183	1	1	2	-32.3175	-1.2248	52.085	
184	1	2	-2	-30.2325	-1.2248	52.085	
185	1	1	2	-28.1475	-3.3098	50	
186	1	2	-2	-26.0625	-3.3098	50	
187	1	2	-2	-28.1475	-1.2248	50	
188	1	1	2	-26.0625	-1.2248	50	
189	1	2	-2	-28.1475	-3.3098	52.085	
190	1	1	2	-26.0625	-3.3098	52.085	
191	1	1	2	-28.1475	-1.2248	52.085	
192	1	2	-2	-26.0625	-1.2248	52.085	
193	1	1	2	-23.9775	-3.3098	50	
194	1	2	-2	-21.8925	-3.3098	50	
195	1	2	-2	-23.9775	-1.2248	50	
196	1	1	2	-21.8925	-1.2248	50	
197	1	2	-2	-23.9775	-3.3098	52.085	
198	1	1	2	-21.8925	-3.3098	52.085	
199	1	1	2	-23.9775	-1.2248	52.085	
200	1	2	-2	-21.8925	-1.2248	52.085	
201	1	1	2	-19.8075	-3.3098	50	
202	1	2	-2	-17.7225	-3.3098	50	
203	1	2	-2	-19.8075	-1.2248	50	
204	1	1	2	-17.7225	-1.2248	50	
205	1	2	-2	-19.8075	-3.3098	52.085	
206	1	1	2	-17.7225	-3.3098	52.085	
207	1	1	2	-19.8075	-1.2248	52.085	
208	1	2	-2	-17.7225	-1.2248	52.085	
209	1	1	2	-15.6375	-3.3098	50	
210	1	2	-2	-13.5525	-3.3098	50	
211	1	2	-2	-15.6375	-1.2248	50	
212	1	1	2	-13.5525	-1.2248	50	
213	1	2	-2	-15.6375	-3.3098	52.085	
214	1	1	2	-13.5525	-3.3098	52.085	
215	1	1	2	-15.6375	-1.2248	52.085	
216	1	2	-2	-13.5525	-1.2248	52.085	
217	1	1	2	-11.4675	-3.3098	50	
218	1	2	-2	-9.3825	-3.3098	50	
219	1	2	-2	-11.4675	-1.2248	50	
220	1	1	2	-9.3825	-1.2248	50	
221	1	2	-2	-11.4675	-3.3098	52.085	
222	1	1	2	-9.3825	-3.3098	52.085	
223	1	1	2	-11.4675	-1.2248	52.085	
224	1	2	-2	-9.3825	-1.2248	52.085	
225	1	1	2	-7.2975	-3.3098	50	
226	1	2	-2	-5.2125	-3.3098	50	
227	1	2	-2	-7.2975	-1.2248	50	
228	1	1	2	-5.2125	-1.2248	50	
229	1	2	-2	-7.2975	-3.3098	52.085	
230	1	1	2	-5.2125	-3.3098	52.085	
231	1	1	2	-7.2975	-1.2248	52.085	
232	1	2	-2	-5.2125	-1.2248	52.085	
233	1	1	2	-3.1275	-3.3098	50	
234	1	2	-2	-1.0425	-3.3098	50	
235	1	2	-2	-3.1275	-1.2248	50	
236	1	1	2	-1.0425	-1.2248	50	
237	1	2	-2	-3.1275	-3.3098	52.085	
238	1	1	2	-1.0425	-3.3098	52.085	
239	1	1	2	-3.1275	-1.2248	52.085	
240	1	2	-2	-1.0425	-1.2248	52.085	
241	1	1	2	1.0425	-3.3098	50	
242	1	2	-2	3.1275	-3.3098	50	
243	1	2	-2	1.0425	-1.2248	50	
244	1	1	2	3.1275	-1.2248	50	
245	1	2	-2	1.0425	-3.3098	52.085	
246	1	1	2	3.1275	-3.3098	52.085	
247	1	1	2	1.0425	-1.2248	52.085	
248	1	2	-2	3.1275	-1.2248	52.085	
249	1	1	2	5.2125	-3.3098	50	
250	1	2	-2	7.2975	-3.3098	50	
251	1	2	-2	5.2125	-1.2248	50	
252	1	1	2	7.2975	-1.2248	50	
253	1	2	-2	5.2125	-3.3098	52.085	
254	1	1	2	7.2975	-3.3098	52.085	
255	1	1	2	5.2125	-1.2248	52.085	
256	1	2	-2	7.2975	-1.2248	52.085	
257	1	1	2	9.3825	-3.3098	50	
258	1	2	-2	11.4675	-3.3098	50	
259	1	2	-2	9.3825	-1.2248	50	
260	1	1	2	11.4675	-1.2248	50	
261	1	2	-2	9.3825	-3.3098	52.085	
262	1	1	2	11.4675	-3.3098	52.085	
263	1	1	2	9.3825	-1.2248	52.085	
264	1	2	-2	11.4675	-1.2248	52.085	
265	1	1	2	13.5525	-3.3098	50	
266	1	2	-2	15.6375	-3.3098	50	
267	1	2	-2	13.5525	-1.2248	50	
268	1	1	2	15.6375	-1.2248	50	
269	1	2	-2	13.5525	-3.3098	52.085	
270	1	1	2	15.6375	-3.3098	52.085	
271	1	1	2	13.5525	-1.2248	52.085	
272	1	2	-2	15.6375	-1.2248	52.085	
273	1	1	2	17.7225	-3.3098	50	
274	1	2	-2	19.8075	-3.3098	50	
275	1	2	-2	17.7225	-1.2248	50	
276	1	1	2	19.8075	-1.2248	50	
277	1	2	-2	17.7225	-3.3098	52.085	
278	1	1	2	19.8075	-3.3098	52.085	
279	1	1	2	17.7225	-1.2248	52.085	
280	1	2	-2	19.8075	-1.2248	52.085	
281	1	1	2	21.8925	-3.3098	50	
282	1	2	-2	23.9775	-3.3098	50	
283	1	2	-2	21.8925	-1.2248	50	
284	1	1	2	23.9775	-1.2248	50	
285	1	2	-2	21.8925	-3.3098	52.085	
286	1	1	2	23.9775	-3.3098	52.085	
287	1	1	2	21.8925	-1.2248	52.085	
288	1	2	-2	23.9775	-1.2248	52.085	
289	1	1	2	26.0625	-3.3098	50	
290	1	2	-2	28.1475	-3.3098	50	
291	1	2	-2	26.0625	-1.2248	50	
292	1	1	2	28.1475	-1.2248	50	
293	1	2	-2	26.0625	-3.3098	52.085	
294	1	1	2	28.1475	-3.3098	52.085	
295	1	1	2	26.0625	-1.2248	52.085	
296	1	2	-2	28.1475	-1.2248	52.085	
297	1	1	2	30.2325	-3.3098	50	
298	1	2	-2	32.3175	-3.3098	50	
299	1	2	-2	30.2325	-1.2248	50	
300	1	1	2	32.3175	-1.2248	50	
301	1	2	-2	30.2325	-3.3098	52.085	
302	1	1	2	32.3175	-3.3098	52.085	
303	1	1	2	30.2325	-1.2248	52.085	
304	1	2	-2	32.3175	-1.2248	52.085	
305	1	1	2	34.4025	-3.3098	50	
306	1	2	-2	36.4875	-3.3098	50	
307	1	2	-2	34.4025	-1.2248	50	
308	1	1	2	36.4875	-1.2248	50	
309	1	2	-2	34.4025	-3.3098	52.085	
310	1	1	2	36.4875	-3.3098	52.085	
311	1	1	2	34.4025	-1.2248	52.085	
312	1	2	-2	36.4875	-1.2248	52.085	
313	1	1	2	38.5725	-3.3098	50	
314	1	2	-2	40.6575	-3.3098	50	
315	1	2	-2	38.5725	-1.2248	50	
316	1	1	2	40.6575	-1.2248	50	
317	1	2	-2	38.5725	-3.3098	52.085	
318	1	1	2	40.6575	-3.3098	52.085	
319	1	1	2	38.5725	-1.2248	52.085	
320	1	2	-2	40.6575	-1.2248	52.085	
321	1	1	2	-40.6575	0.8602	50	
322	1	2	-2	-38.5725	0.8602	50	
323	1	2	-2	-40.6575	2.9452	50	
324	1	1	2	-38.5725	2.9452	50	
325	1	2	-2	-40.6575	0.8602	52.085	
326	1	1	2	-38.5725	0.8602	52.085	
327	1	1	2	-40.6575	2.9452	52.085	
328	1	2	-2	-38.5725	2.9452	52.085	
329	1	1	2	-36.4875	0.8602	50	
330	1	2	-2	-34.4025	0.8602	50	
331	1	2	-2	-36.4875	2.9452	50	
332	1	1	2	-34.4025	2.9452	50	
333	1	2	-2	-36.4875	0.8602	52.085	
334	1	1	2	-34.4025	0.8602	52.085	
335	1	1	2	-36.4875	2.9452	52.085	
336	1	2	-2	-34.4025	2.9452	52.085	
337	1	1	2	-32.3175	0.8602	50	
338	1	2	-2	-30.2325	0.8602	50	
339	1	2	-2	-32.3175	2.9452	50	
340	1	1	2	-30.2325	2.9452	50	
341	1	2	-2	-32.3175	0.8602	52.085	
342	1	1	2	-30.2325	0.8602	52.085	
343	1	1	2	-32.3175	2.9452	52.085	
344	1	2	-2	-30.2325	2.9452	52.085	
345	1	1	2	-28.1475	0.8602	50	
346	1	2	-2	-26.0625	0.8602	50	
347	1	2	-2	-28.1475	2.9452	50	
348	1	1	2	-26.0625	2.9452	50	
349	1	2	-2	-28.1475	0.8602	52.085	
350	1	1	2	-26.0625	0.8602	52.085	
351	1	1	2	-28.1475	2.9452	52.085	
352	1	2	-2	-26.0625	2.9452	52.085	
353	1	1	2	-23.9775	0.8602	50	
354	1	2	-2	-21.8925	0.8602	50	
355	1	2	-2	-23.9775	2.9452	50	
356	1	1	2	-21.8925	2.9452	50	
357	1	2	-2	-23.9775	0.8602	52.085	
358	1	1	2	-21.8925	0.8602	52.085	
359	1	1	2	-23.9775	2.9452	52.085	
360	1	2	-2	-21.8925	2.9452	52.085	
361	1	1	2	-19.8075	0.8602	50	
362	1	2	-2	-17.7225	0.8602	50	
363	1	2	-2	-19.8075	2.9452	50	
364	1	1	2	-17.7225	2.9452	50	
365	1	2	-2	-19.8075	0.8602	52.085	
366	1	1	2	-17.7225	0.8602	52.085	
367	1	1	2	-19.8075	2.9452	52.085	
368	1	2	-2	-17.7225	2.9452	52.085	
369	1	1	2	-15.6375	0.8602	50	
370	1	2	-2	-13.5525	0.8602	50	
371	1	2	-2	-15.6375	2.9452	50	
372	1	1	2	-13.5525	2.9452	50	
373	1	2	-2	-15.6375	0.8602	52.085	
374	1	1	2	-13.5525	0.8602	52.085	
375	1	1	2	-15.6375	2.9452	52.085	
376	1	2	-2	-13.5525	2.9452	52.085	
377	1	1	2	-11.4675	0.8602	50	
378	1	2	-2	-9.3825	0.8602	50	
379	1	2	-2	-11.4675	2.9452	50	
380	1	1	2	-9.3825	2.9452	50	
381	1	2	-2	-11.4675	0.8602	52.085	
382	1	1	2	-9.3825	0.8602	52.085	
383	1	1	2	-11.4675	2.9452	52.085	
384	1	2	-2	-9.3825	2.9452	52.085	
385	1	1	2	-7.2975	0.8602	50	
386	1	2	-2	-5.2125	0.8602	50	
387	1	2	-2	-7.2975	2.9452	50	
388	1	1	2	-5.2125	2.9452	50	
389	1	2	-2	-7.2975	0.8602	52.085	
390	1	1	2	-5.2125	0.8602	52.085	
391	1	1	2	-7.2975	2.9452	52.085	
392	1	2	-2	-5.2125	2.9452	52.085	
393	1	1	2	-3.1275	0.8602	50	
394	1	2	-2	-1.0425	0.8602	50	
395	1	2	-2	-3.1275	2.9452	50	
396	1	1	2	-1.0425	2.9452	50	
397	1	2	-2	-3.1275	0.8602	52.085	
398	1	1	2	-1.0425	0.8602	52.085	
399	1	1	2	-3.1275	2.9452	52.085	
400	1	2	-2	-1.0425	2.9452	52.085	
401	1	1	2	1.0425	0.8602	50	
402	1	2	-2	3.1275	0.8602	50	
403	1	2	-2	1.0425	2.9452	50	
404	1	1	2	3.1275	2.9452	50	
405	1	2	-2	1.0425	0.8602	52.085	
406	1	1	2	3.1275	0.8602	52.085	
407	1	1	2	1.0425	2.9452	52.085	
408	1	2	-2	3.1275	2.9452	52.085	
409	1	1	2	5.2125	0.8602	50	
410	1	2	-2	7.2975	0.8602	50	
411	1	2	-2	5.2125	2.9452	50	
412	1	1	2	7.2975	2.9452	50	
413	1	2	-2	5.2125	0.8602	52.085	
414	1	1	2	7.2975	0.8602	52.085	
415	1	1	2	5.2125	2.9452	52.085	
416	1	2	-2	7.2975	2.9452	52.085	
417	1	1	2	9.3825	0.8602	50	
418	1	2	-2	11.4675	0.8602	50	
419	1	2	-2	9.3825	2.9452	50	
420	1	1	2	11.4675	2.9452	50	
421	1	2	-2	9.3825	0.8602	52.085	
422	1	1	2	11.4675	0.8602	52.085	
423	1	1	2	9.3825	2.9452	52.085	
424	1	2	-2	11.4675	2.9452	52.085	
425	1	1	2	13.5525	0.8602	50	
426	1	2	-2	15.6375	0.8602	50	
427	1	2	-2	13.5525	2.9452	50	
428	1	1	2	15.6375	2.9452	50	
429	1	2	-2	13.5525	0.8602	52.085	
430	1	1	2	15.6375	0.8602	52.085	
431	1	1	2	13.5525	2.9452	52.085	
432	1	2	-2	15.6375	2.9452	52.085	
433	1	1	2	17.7225	0.8602	50	
434	1	2	-2	19.8075	0.8602	50	
435	1	2	-2	17.7225	2.9452	50	
436	1	1	2	19.8075	2.9452	50	
437	1	2	-2	17.7225	0.8602	52.085	
438	1	1	2	19.8075	0.8602	52.085	
439	1	1	2	17.7225	2.9452	52.085	
440	1	2	-2	19.8075	2.9452	52.085	
441	1	1	2	21.8925	0.8602	50	
442	1	2	-2	23.9775	0.8602	50	
443	1	2	-2	21.8925	2.9452	50	
444	1	1	2	23.9775	2.9452	50	
445	1	2	-2	21.8925	0.8602	52.085	
446	1	1	2	23.9775	0.8602	52.085	
447	1	1	2	21.8925	2.9452	52.085	
448	1	2	-2	23.9775	2.9452	52.085	
449	1	1	2	26.0625	0.8602	50	
450	1	2	-2	28.1475	0.8602	50	
451	1	2	-2	26.0625	2.9452	50	
452	1	1	2	28.1475	2.9452	50	
453	1	2	-2	26.0625	0.8602	52.085	
454	1	1	2	28.1475	0.8602	52.085	
455	1	1	2	26.0625	2.9452	52.085	
456	1	2	-2	28.1475	2.9452	52.085	
457	1	1	2	30.2325	0.8602	50	
458	1	2	-2	32.3175	0.8602	50	
459	1	2	-2	30.2325	2.9452	50	
460	1	1	2	32.3175	2.9452	50	
461	1	2	-2	30.2325	0.8602	52.085	
462	1	1	2	32.3175	0.8602	52.085	
463	1	1	2	30.2325	2.9452	52.085	
464	1	2	-2	32.3175	2.9452	52.085	
465	1	1	2	34.4025	0.8602	50	
466	1	2	-2	36.4875	0.8602	50	
467	1	2	-2	34.4025	2.9452	50	
468	1	1	2	36.4875	2.9452	50	
469	1	2	-2	34.4025	0.8602	52.085	
470	1	1	2	36.4875	0.8602	52.085	
471	1	1	2	34.4025	2.9452	52.085	
472	1	2	-2	36.4875	2.9452	52.085	
473	1	1	2	38.5725	0.8602	50	
474	1	2	-2	40.6575	0.8602	50	
475	1	2	-2	38.5725	2.9452	50	
476	1	1	2	40.6575	2.9452	50	
477	1	2	-2	38.5725	0.8602	52.085	
478	1	1	2	40.6575	0.8602	52.085	
479	1	1	2	38.5725	2.9452	52.085	
480	1	2	-2	40.6575	2.9452	52.085	
481	1	1	2	-40.6575	5.0302	50	
482	1	2	-2	-38.5725	5.0302	50	
483	1	2	-2	-40.6575	7.1152	50	
484	1	1	2	-38.5725	7.1152	50	
485	1	2	-2	-40.6575	5.0302	52.085	
486	1	1	2	-38.5725	5.0302	52.085	
487	1	1	2	-40.6575	7.1152	52.085	
488	1	2	-2	-38.5725	7.1152	52.085	
489	1	1	2	-36.4875	5.0302	50	
490	1	2	-2	-34.4025	5.0302	50	
491	1	2	-2	-36.4875	7.1152	50	
492	1	1	2	-34.4025	7.1152	50	
493	1	2	-2	-36.4875	5.0302	52.085	
494	1	1	2	-34.4025	5.0302	52.085	
495	1	1	2	-36.4875	7.1152	52.085	
496	1	2	-2	-34.4025	7.1152	52.085	
497	1	1	2	-32.3175	5.0302	50	
498	1	2	-2	-30.2325	5.0302	50	
499	1	2	-2	-32.3175	7.1152	50	
500	1	1	2	-30.2325	7.1152	50	
501	1	2	-2	-32.3175	5.0302	52.085	
502	1	1	2	-30.2325	5.0302	52.085	
503	1	1	2	-32.3175	7.1152	52.085	
504	1	2	-2	-30.2325	7.1152	52.085	
505	1	1	2	-28.1475	5.0302	50	
506	1	2	-2	-26.0625	5.0302	50	
507	1	2	-2	-28.1475	7.1152	50	
508	1	1	2	-26.0625	7.1152	50	
509	1	2	-2	-28.1475	5.0302	52.085	
510	1	1	2	-26.0625	5.0302	52.085	
511	1	1	2	-28.1475	7.1152	52.085	
512	1	2	-2	-26.0625	7.1152	52.085	
513	1	1	2	-23.9775	5.0302	50	
514	1	2	-2	-21.8925	5.0302	50	
515	1	2	-2	-23.9775	7.1152	50	
516	1	1	2	-21.8925	7.1152	50	
517	1	2	-2	-23.9775	5.0302	52.085	
518	1	1	2	-21.8925	5.0302	52.085	
519	1	1	2	-23.9775	7.1152	52.085	
520	1	2	-2	-21.8925	7.1152	52.085	
521	1	1	2	-19.8075	5.0302	50	
522	1	2	-2	-17.7225	5.0302	50	
523	1	2	-2	-19.8075	7.1152	50	
524	1	1	2	-17.7225	7.1152	50	
525	1	2	-2	-19.8075	5.0302	52.085	
526	1	1	2	-17.7225	5.0302	52.085	
527	1	1	2	-19.8075	7.1152	52.085	
528	1	2	-2	-17.7225	7.1152	52.085	
529	1	1	2	-15.6375	5.0302	50	
530	1	2	-2	-13.5525	5.0302	50	
531	1	2	-2	-15.6375	7.1152	50	
532	1	1	2	-13.5525	7.1152	50	
533	1	2	-2	-15.6375	5.0302	52.085	
534	1	1	2	-13.5525	5.0302	52.085	
535	1	1	2	-15.6375	7.1152	52.085	
536	1	2	-2	-13.5525	7.1152	52.085	
537	1	1	2	-11.4675	5.0302	50	
538	1	2	-2	-9.3825	5.0302	50	
539	1	2	-2	-11.4675	7.1152	50	
540	1	1	2	-9.3825	7.1152	50	
541	1	2	-2	-11.4675	5.0302	52.085	
542	1	1	2	-9.3825	5.0302	52.085	
543	1	1	2	-11.4675	7.1152	52.085	
544	1	2	-2	-9.3825	7.1152	52.085	
545	1	1	2	-7.2975	5.0302	50	
546	1	2	-2	-5.2125	5.0302	50	
547	1	2	-2	-7.2975	7.1152	50	
548	1	1	2	-5.2125	7.1152	50	
549	1	2	-2	-7.2975	5.0302	52.085	
550	1	1	2	-5.2125	5.0302	52.085	
551	1	1	2	-7.2975	7.1152	52.085	
552	1	2	-2	-5.2125	7.1152	52.085	
553	1	1	2	-3.1275	5.0302	50	
554	1	2	-2	-1.0425	5.0302	50	
555	1	2	-2	-3.1275	7.1152	50	
556	1	1	2	-1.0425	7.1152	50	
557	1	2	-2	-3.1275	5.0302	52.085	
558	1	1	2	-1.0425	5.0302	52.085	
559	1	1	2	-3.1275	7.1152	52.085	
560	1	2	-2	-1.0425	7.1152	52.085	
561	1	1	2	1.0425	5.0302	50	
562	1	2	-2	3.1275	5.0302	50	
563	1	2	-2	1.0425	7.1152	50	
564	1	1	2	3.1275	7.1152	50	
565	1	2	-2	1.0425	5.0302	52.085	
566	1	1	2	3.1275	5.0302	52.085	
567	1	1	2	1.0425	7.1152	52.085	
568	1	2	-2	3.1275	7.1152	52.085	
569	1	1	2	5.2125	5.0302	50	
570	1	2	-2	7.2975	5.0302	50	
571	1	2	-2	5.2125	7.1152	50	
572	1	1	2	7.2975	7.1152	50	
573	1	2	-2	5.2125	5.0302	52.085	
574	1	1	2	7.2975	5.0302	52.085	
575	1	1	2	5.2125	7.1152	52.085	
576	1	2	-2	7.2975	7.1152	52.085	
577	1	1	2	9.3825	5.0302	50	
578	1	2	-2	11.4675	5.0302	50	
579	1	2	-2	9.3825	7.1152	50	
580	1	1	2	11.4675	7.1152	50	
581	1	2	-2	9.3825	5.0302	52.085	
582	1	1	2	11.4675	5.0302	52.085	
583	1	1	2	9.3825	7.1152	52.085	
584	1	2	-2	11.4675	7.1152	52.085	
585	1	1	2	13.5525	5.0302	50	
586	1	2	-2	15.6375	5.0302	50	
587	1	2	-2	13.5525	7.1152	50	
588	1	1	2	15.6375	7.1152	50	
589	1	2	-2	13.5525	5.0302	52.085	
590	1	1	2	15.6375	5.0302	52.085	
591	1	1	2	13.5525	7.1152	52.085	
592	1	2	-2	15.6375	7.1152	52.085	
593	1	1	2	17.7225	5.0302	50	
594	1	2	-2	19.8075	5.0302	50	
595	1	2	-2	17.7225	7.1152	50	
596	1	1	2	19.8075	7.1152	50	
597	1	2	-2	17.7225	5.0302	52.085	
598	1	1	2	19.8075	5.0302	52.085	
599	1	1	2	17.7225	7.1152	52.085	
600	1	2	-2	19.8075	7.1152	52.085	
601	1	1	2	21.8925	5.0302	50	
602	1	2	-2	23.9775	5.0302	50	
603	1	2	-2	21.8925	7.1152	50	
604	1	1	2	23.9775	7.1152	50	
605	1	2	-2	21.8925	5.0302	52.085	
606	1	1	2	23.9775	5.0302	52.085	
607	1	1	2	21.8925	7.1152	52.085	
608	1	2	-2	23.9775	7.1152	52.085	
609	1	1	2	26.0625	5.0302	50	
610	1	2	-2	28.1475	5.0302	50	
611	1	2	-2	26.0625	7.1152	50	
612	1	1	2	28.1475	7.1152	50	
613	1	2	-2	26.0625	5.0302	52.085	
614	1	1	2	28.1475	5.0302	52.085	
615	1	1	2	26.0625	7.1152	52.085	
616	1	2	-2	28.1475	7.1152	52.085	
617	1	1	2	30.2325	5.0302	50	
618	1	2	-2	32.3175	5.0302	50	
619	1	2	-2	30.2325	7.1152	50	
620	1	1	2	32.3175	7.1152	50	
621	1	2	-2	30.2325	5.0302	52.085	
622	1	1	2	32.3175	5.0302	52.085	
623	1	1	2	30.2325	7.1152	52.085	
624	1	2	-2	32.3175	7.1152	52.085	
625	1	1	2	34.4025	5.0302	50	
626	1	2	-2	36.4875	5.0302	50	
627	1	2	-2	34.4025	7.1152	50	
628	1	1	2	36.4875	7.1152	50	
629	1	2	-2	34.4025	5.0302	52.085	
630	1	1	2	36.4875	5.0302	52.085	
631	1	1	2	34.4025	7.1152	52.085	
632	1	2	-2	36.4875	7.1152	52.085	
633	1	1	2	38.5725	5.0302	50	
634	1	2	-2	40.6575	5.0302	50	
635	1	2	-2	38.5725	7.1152	50	
636	1	1	2	40.6575	7.1152	50	
637	1	2	-2	38.5725	5.0302	52.085	
638	1	1	2	40.6575	5.0302	52.085	
639	1	1	2	38.5725	7.1152	52.085	
640	1	2	-2	40.6575	7.1152	52.085	
641	1	1	2	-40.6575	-7.4798	54.17	
642	1	2	-2	-38.5725	-7.4798	54.17	
643	1	2	-2	-40.6575	-5.3948	54.17	
644	1	1	2	-38.5725	-5.3948	54.17	
645	1	2	-2	-40.6575	-7.4798	56.255	
646	1	1	2	-38.5725	-7.4798	56.255	
647	1	1	2	-40.6575	-5.3948	56.255	
648	1	2	-2	-38.5725	-5.3948	56.255	
649	1	1	2	-36.4875	-7.4798	54.17	
650	1	2	-2	-34.4025	-7.4798	54.17	
651	1	2	-2	-36.4875	-5.3948	54.17	
652	1	1	2	-34.4025	-5.3948	54.17	
653	1	2	-2	-36.4875	-7.4798	56.255	
654	1	1	2	-34.4025	-7.4798	56.255	
655	1	1	2	-36.4875	-5.3948	56.255	
656	1	2	-2	-34.4025	-5.3948	56.255	
657	1	1	2	-32.3175	-7.4798	54.17	
658	1	2	-2	-30.2325	-7.4798	54.17	
659	1	2	-2	-32.3175	-5.3948	54.17	
660	1	1	2	-30.2325	-5.3948	54.17	
661	1	2	-2	-32.3175	-7.4798	56.255	
662	1	1	2	-30.2325	-7.4798	56.255	
663	1	1	2	-32.3175	-5.3948	56.255	
664	1	2	-2	-30.2325	-5.3948	56.255	
665	1	1	2	-28.1475	-7.4798	54.17	
666	1	2	-2	-26.0625	-7.4798	54.17	
667	1	2	-2	-28.1475	-5.3948	54.17	
668	1	1	2	-26.0625	-5.3948	54.17	
669	1	2	-2	-28.1475	-7.4798	56.255	
670	1	1	2	-26.0625	-7.4798	56.255	
671	1	1	2	-28.1475	-5.3948	56.255	
672	1	2	-2	-26.0625	-5.3948	56.255	
673	1	1	2	-23.9775	-7.4798	54.17	
674	1	2	-2	-21.8925	-7.4798	54.17	
675	1	2	-2	-23.9775	-5.3948	54.17	
676	1	1	2	-21.8925	-5.3948	54.17	
677	1	2	-2	-23.9775	-7.4798	56.255	
678	1	1	2	-21.8925	-7.4798	56.255	
679	1	1	2	-23.9775	-5.3948	56.255	
680	1	2	-2	-21.8925	-5.3948	56.255	
681	1	1	2	-19.8075	-7.4798	54.17	
682	1	2	-2	-17.7225	-7.4798	54.17	
683	1	2	-2	-19.8075	-5.3948	54.17	
684	1	1	2	-17.7225	-5.3948	54.17	
685	1	2	-2	-19.8075	-7.4798	56.255	
686	1	1	2	-17.7225	-7.4798	56.255	
687	1	1	2	-19.8075	-5.3948	56.255	
688	1	2	-2	-17.7225	-5.3948	56.255	
689	1	1	2	-15.6375	-7.4798	54.17	
690	1	2	-2	-13.5525	-7.4798	54.17	
691	1	2	-2	-15.6375	-5.3948	54.17	
692	1	1	2	-13.5525	-5.3948	54.17	
693	1	2	-2	-15.6375	-7.4798	56.255	
694	1	1	2	-13.5525	-7.4798	56.255	
695	1	1	2	-15.6375	-5.3948	56.255	
696	1	2	-2	-13.5525	-5.3948	56.255	
697	1	1	2	-11.4675	-7.4798	54.17	
698	1	2	-2	-9.3825	-7.4798	54.17	
699	1	2	-2	-11.4675	-5.3948	54.17	
700	1	1	2	-9.3825	-5.3948	54.17	
701	1	2	-2	-11.4675	-7.4798	56.255	
702	1	1	2	-9.3825	-7.4798	56.255	
703	1	1	2	-11.4675	-5.3948	56.255	
704	1	2	-2	-9.3825	-5.3948	56.255	
705	1	1	2	-7.2975	-7.4798	54.17	
706	1	2	-2	-5.2125	-7.4798	54.17	
707	1	2	-2	-7.2975	-5.3948	54.17	
708	1	1	2	-5.2125	-5.3948	54.17	
709	1	2	-2	-7.2975	-7.4798	56.255	
710	1	1	2	-5.2125	-7.4798	56.255	
711	1	1	2	-7.2975	-5.3948	56.255	
712	1	2	-2	-5.2125	-5.3948	56.255	
713	1	1	2	-3.1275	-7.4798	54.17	
714	1	2	-2	-1.0425	-7.4798	54.17	
715	1	2	-2	-3.1275	-5.3948	54.17	
716	1	1	2	-1.0425	-5.3948	54.17	
717	1	2	-2	-3.1275	-7.4798	56.255	
718	1	1	2	-1.0425	-7.4798	56.255	
719	1	1	2	-3.1275	-5.3948	56.255	
720	1	2	-2	-1.0425	-5.3948	56.255	
721	1	1	2	1.0425	-7.4798	54.17	
722	1	2	-2	3.1275	-7.4798	54.17	
723	1	2	-2	1.0425	-5.3948	54.17	
724	1	1	2	3.1275	-5.3948	54.17	
725	1	2	-2	1.0425	-7.4798	56.255	
726	1	1	2	3.1275	-7.4798	56.255	
727	1	1	2	1.0425	-5.3948	56.255	
728	1	2	-2	3.1275	-5.3948	56.255	
729	1	1	2	5.2125	-7.4798	54.17	
730	1	2	-2	7.2975	-7.4798	54.17	
731	1	2	-2	5.2125	-5.3948	54.17	
732	1	1	2	7.2975	-5.3948	54.17	
733	1	2	-2	5.2125	-7.4798	56.255	
734	1	1	2	7.2975	-7.4798	56.255	
735	1	1	2	5.2125	-5.3948	56.255	
736	1	2	-2	7.2975	-5.3948	56.255	
737	1	1	2	9.3825	-7.4798	54.17	
738	1	2	-2	11.4675	-7.4798	54.17	
739	1	2	-2	9.3825	-5.3948	54.17	
740	1	1	2	11.4675	-5.3948	54.17	
741	1	2	-2	9.3825	-7.4798	56.255	
742	1	1	2	11.4675	-7.4798	56.255	
743	1	1	2	9.3825	-5.3948	56.255	
744	1	2	-2	11.4675	-5.3948	56.255	
745	1	1	2	13.5525	-7.4798	54.17	
746	1	2	-2	15.6375	-7.4798	54.17	
747	1	2	-2	13.5525	-5.3948	54.17	
748	1	1	2	15.6375	-5.3948	54.17	
749	1	2	-2	13.5525	-7.4798	56.255	
750	1	1	2	15.6375	-7.4798	56.255	
751	1	1	2	13.5525	-5.3948	56.255	
752	1	2	-2	15.6375	-5.3948	56.255	
753	1	1	2	17.7225	-7.4798	54.17	
754	1	2	-2	19.8075	-7.4798	54.17	
755	1	2	-2	17.7225	-5.3948	54.17	
756	1	1	2	19.8075	-5.3948	54.17	
757	1	2	-2	17.7225	-7.4798	56.255	
758	1	1	2	19.8075	-7.4798	56.255	
759	1	1	2	17.7225	-5.3948	56.255	
760	1	2	-2	19.8075	-5.3948	56.255	
761	1	1	2	21.8925	-7.4798	54.17	
762	1	2	-2	23.9775	-7.4798	54.17	
763	1	2	-2	21.8925	-5.3948	54.17	
764	1	1	2	23.9775	-5.3948	54.17	
765	1	2	-2	21.8925	-7.4798	56.255	
766	1	1	2	23.9775	-7.4798	56.255	
767	1	1	2	21.8925	-5.3948	56.255	
768	1	2	-2	23.9775	-5.3948	56.255	
769	1	1	2	26.0625	-7.4798	54.17	
770	1	2	-2	28.1475	-7.4798	54.17	
771	1	2	-2	26.0625	-5.3948	54.17	
772	1	1	2	28.1475	-5.3948	54.17	
773	1	2	-2	26.0625	-7.4798	56.255	
774	1	1	2	28.1475	-7.4798	56.255	
775	1	1	2	26.0625	-5.3948	56.255	
776	1	2	-2	28.1475	-5.3948	56.255	
777	1	1	2	30.2325	-7.4798	54.17	
778	1	2	-2	32.3175	-7.4798	54.17	
779	1	2	-2	30.2325	-5.3948	54.17	
780	1	1	2	32.3175	-5.3948	54.17	
781	1	2	-2	30.2325	-7.4798	56.255	
782	1	1	2	32.3175	-7.4798	56.255	
783	1	1	2	30.2325	-5.3948	56.255	
784	1	2	-2	32.3175	-5.3948	56.255	
785	1	1	2	34.4025	-7.4798	54.17	
786	1	2	-2	36.4875	-7.4798	54.17	
787	1	2	-2	34.4025	-5.3948	54.17	
788	1	1	2	36.4875	-5.3948	54.17	
789	1	2	-2	34.4025	-7.4798	56.255	
790	1	1	2	36.4875	-7.4798	56.255	
791	1	1	2	34.4025	-5.3948	56.255	
792	1	2	-2	36.4875	-5.3948	56.255	
793	1	1	2	38.5725	-7.4798	54.17	
794	1	2	-2	40.6575	-7.4798	54.17	
795	1	2	-2	38.5725	-5.3948	54.17	
796	1	1	2	40.6575	-5.3948	54.17	
797	1	2	-2	38.5725	-7.4798	56.255	
798	1	1	2	40.6575	-7.4798	56.255	
799	1	1	2	38.5725	-5.3948	56.255	
800	1	2	-2	40.6575	-5.3948	56.255	
801	1	1	2	-40.6575	-3.3098	54.17	
802	1	2	-2	-38.5725	-3.3098	54.17	
803	1	2	-2	-40.6575	-1.2248	54.17	
804	1	1	2	-38.5725	-1.2248	54.17	
805	1	2	-2	-40.6575	-3.3098	56.255	
806	1	1	2	-38.5725	-3.3098	56.255	
807	1	1	2	-40.6575	-1.2248	56.255	
808	1	2	-2	-38.5725	-1.2248	56.255	
809	1	1	2	-36.4875	-3.3098	54.17	
810	1	2	-2	-34.4025	-3.3098	54.17	
811	1	2	-2	-36.4875	-1.2248	54.17	
812	1	1	2	-34.4025	-1.2248	54.17	
813	1	2	-2	-36.4875	-3.3098	56.255	
814	1	1	2	-34.4025	-3.3098	56.255	
815	1	1	2	-36.4875	-1.2248	56.255	
816	1	2	-2	-34.4025	-1.2248	56.255	
817	1	1	2	-32.3175	-3.3098	54.17	
818	1	2	-2	-30.2325	-3.3098	54.17	
819	1	2	-2	-32.3175	-1.2248	54.17	
820	1	1	2	-30.2325	-1.2248	54.17	
821	1	2	-2	-32.3175	-3.3098	56.255	
822	1	1	2	-30.2325	-3.3098	56.255	
823	1	1	2	-32.3175	-1.2248	56.255	
824	1	2	-2	-30.2325	-1.2248	56.255	
825	1	1	2	-28.1475	-3.3098	54.17	
826	1	2	-2	-26.0625	-3.3098	54.17	
827	1	2	-2	-28.1475	-1.2248	54.17	
828	1	1	2	-26.0625	-1.2248	54.17	
829	1	2	-2	-28.1475	-3.3098	56.255	
830	1	1	2	-26.0625	-3.3098	56.255	
831	1	1	2	-28.1475	-1.2248	56.255	
832	1	2	-2	-26.0625	-1.2248	56.255	
833	1	1	2	-23.9775	-3.3098	54.17	
834	1	2	-2	-21.8925	-3.3098	54.17	
835	1	2	-2	-23.9775	-1.2248	54.17	
836	1	1	2	-21.8925	-1.2248	54.17	
837	1	2	-2	-23.9775	-3.3098	56.255	
838	1	1	2	-21.8925	-3.3098	56.255	
839	1	1	2	-23.9775	-1.2248	56.255	
840	1	2	-2	-21.8925	-1.2248	56.255	
841	1	1	2	-19.8075	-3.3098	54.17	
842	1	2	-2	-17.7225	-3.3098	54.17	
843	1	2	-2	-19.8075	-1.2248	54.17	
844	1	1	2	-17.7225	-1.2248	54.17	
845	1	2	-2	-19.8075	-3.3098	56.255	
846	1	1	2	-17.7225	-3.3098	56.255	
847	1	1	2	-19.8075	-1.2248	56.255	
848	1	2	-2	-17.7225	-1.2248	56.255	
849	1	1	2	-15.6375	-3.3098	54.17	
850	1	2	-2	-13.5525	-3.3098	54.17	
851	1	2	-2	-15.6375	-1.2248	54.17	
852	1	1	2	-13.5525	-1.2248	54.17	
853	1	2	-2	-15.6375	-3.3098	56.255	
854	1	1	2	-13.5525	-3.3098	56.255	
855	1	1	2	-15.6375	-1.2248	56.255	
856	1	2	-2	-13.5525	-1.2248	56.255	
857	1	1	2	-11.4675	-3.3098	54.17	
858	1	2	-2	-9.3825	-3.3098	54.17	
859	1	2	-2	-11.4675	-1.2248	54.17	
860	1	1	2	-9.3825	-1.2248	54.17	
861	1	2	-2	-11.4675	-3.3098	56.255	
862	1	1	2	-9.3825	-3.3098	56.255	
863	1	1	2	-11.4675	-1.2248	56.255	
864	1	2	-2	-9.3825	-1.2248	56.255	
865	1	1	2	-7.2975	-3.3098	54.17	
866	1	2	-2	-5.2125	-3.3098	54.17	
867	1	2	-2	-7.2975	-1.2248	54.17	
868	1	1	2	-5.2125	-1.2248	54.17	
869	1	2	-2	-7.2975	-3.3098	56.255	
870	1	1	2	-5.2125	-3.3098	56.255	
871	1	1	2	-7.2975	-1.2248	56.255	
872	1	2	-2	-5.2125	-1.2248	56.255	
873	1	1	2	-3.1275	-3.3098	54.17	
874	1	2	-2	-1.0425	-3.3098	54.17	
875	1	2	-2	-3.1275	-1.2248	54.17	
876	1	1	2	-1.0425	-1.2248	54.17	
877	1	2	-2	-3.1275	-3.3098	56.255	
878	1	1	2	-1.0425	-3.3098	56.255	
879	1	1	2	-3.1275	-1.2248	56.255	
880	1	2	-2	-1.0425	-1.2248	56.255	
881	1	1	2	1.0425	-3.3098	54.17	
882	1	2	-2	3.1275	-3.3098	54.17	
883	1	2	-2	1.0425	-1.2248	54.17	
884	1	1	2	3.1275	-1.2248	54.17	
885	1	2	-2	1.0425	-3.3098	56.255	
886	1	1	2	3.1275	-3.3098	56.255	
887	1	1	2	1.0425	-1.2248	56.255	
888	1	2	-2	3.1275	-1.2248	56.255	
889	1	1	2	5.2125	-3.3098	54.17	
890	1	2	-2	7.2975	-3.3098	54.17	
891	1	2	-2	5.2125	-1.2248	54.17	
892	1	1	2	7.2975	-1.2248	54.17	
893	1	2	-2	5.2125	-3.3098	56.255	
894	1	1	2	7.2975	-3.3098	56.255	
895	1	1	2	5.2125	-1.2248	56.255	
896	1	2	-2	7.2975	-1.2248	56.255	
897	1	1	2	9.3825	-3.3098	54.17	
898	1	2	-2	11.4675	-3.3098	54.17	
899	1	2	-2	9.3825	-1.2248	54.17	
900	1	1	2	11.4675	-1.2248	54.17	
901	1	2	-2	9.3825	-3.3098	56.255	
902	1	1	2	11.4675	-3.3098	56.255	
903	1	1	2	9.3825	-1.2248	56.255	
904	1	2	-2	11.4675	-1.2248	56.255	
905	1	1	2	13.5525	-3.3098	54.17	
906	1	2	-2	15.6375	-3.3098	54.17	
907	1	2	-2	13.5525	-1.2248	54.17	