LAMMPS data file via write_data, version 28 Mar 2023, timestep = 102000

2420 atoms
10 atom types
2000 bonds
5 bond types
2800 angles
6 angle types
2400 dihedrals
4 dihedral types

-14.738056067925118 14.738056067925118 xlo xhi
-14.738056067925118 14.738056067925118 ylo yhi
-14.738056067925118 14.738056067925118 zlo zhi

Masses

1 22.99
2 35.45
3 15.999
4 1.00784
5 12.011
6 1.00784
7 1.00784
8 12.011
9 15.999
10 1.00784

Pair Coeffs # lj/cut/tip4p/long

1 0.1075 2.31
2 0.1004 4.3
3 0.1848 3.165
4 0 0
5 0.066 3.5
6 0.03 2.5
7 0 0
8 0.066 3.5
9 0.17 3.12
10 0.03 2.5

Bond Coeffs # harmonic

1 0 0.9572
2 268 1.529
3 340 1.09
4 320 1.41
5 553 0.945

Angle Coeffs # harmonic

1 0 104.52
2 33 107.8
3 37.5 110.7
4 50 109.5
5 35 109.5
6 55 108.6

Dihedral Coeffs # opls

1 -0.356 -0.174 0.492 0
2 0 0 0.468 0
3 0 0 0.45 0
4 0 0 0.318 0

Atoms # full

2326 369 4 0.527 -11.654465145707732 -8.66099476494474 -10.59017613621263 1 1 1
2325 369 3 -1.054 -12.425550243946649 -9.155066521171042 -10.311721884235801 1 1 1
2034 272 3 -1.054 -7.6812191713292854 -8.810778313137705 -10.719711889196997 1 0 0
1515 167 7 0.418 -12.178069394446553 -11.280517928177504 -10.7434892895809 0 1 1
2035 272 4 0.527 -7.879148826229162 -8.797804793814924 -9.78329776413819 1 0 0
1516 167 9 -0.6830000000000001 -11.75612281530156 -12.033477209313755 -11.108089107490194 0 1 1
2036 272 4 0.527 -7.446322619741238 -9.720464923306348 -10.90276861517397 1 0 0
1520 167 5 -0.18 -10.183476301212853 -11.781983267449522 -9.33242353536341 0 1 1
1518 167 10 0.06 -10.074876865644148 -10.845847345061749 -11.425702483005354 0 1 1
1522 167 6 0.06 -9.153302778345601 -11.517082834695731 -9.118786442260925 0 1 1
1517 167 8 0.145 -10.422284999002398 -11.825319675880491 -10.871682635034745 0 1 1
1523 167 6 0.06 -10.488430238503192 -12.771521488873738 -8.959982555128988 0 1 1
1521 167 6 0.06 -10.799597947965097 -11.039153561504072 -8.763476317318695 0 1 1
1519 167 10 0.06 -9.756008438864537 -12.590897007959526 -11.231716637773454 0 1 1
2327 369 4 0.527 -12.780497589300975 -8.652711064592273 -9.578327555971576 1 1 1
813 89 7 0.418 -13.987367375813328 -9.385929865109054 -11.19231891412375 0 0 1
713 77 6 0.06 -8.773483255429671 -12.730994943643893 -6.353264687145 1 0 0
1850 210 4 0.527 -9.444604289684953 -7.873623457819678 -9.18817533696788 1 0 0
815 89 8 0.145 14.212147374808481 -8.170483868990448 -11.871085444817735 -1 0 1
1868 216 4 0.527 -9.328099918802511 -8.132952421612448 -11.089845545271034 1 0 0
1848 210 3 -1.054 -9.084889495312721 -8.287284918966073 -8.403506362064814 1 0 0
1071 117 6 0.06 0.8279519318268722 -1.428399663909822 -13.45575107133618 0 0 0
2418 400 3 -1.054 -6.904935012135665 -14.291263035162899 -10.884710472511976 0 1 1
174 18 7 0.418 -7.200043465577711 -12.454928287560165 -11.079666189919864 0 0 0
819 89 6 0.06 -13.36054018798858 -7.03076225324046 -11.70074242993341 0 0 1
814 89 9 -0.6830000000000001 -14.68552966061634 -9.407439720647705 -11.858673604873923 0 0 1
594 64 6 0.06 -7.250777986018313 -9.878078700381238 -14.54519145927752 0 0 0
253 26 6 0.06 10.690806108326314 -0.41410162452194577 -5.54920572463204 0 0 0
2315 365 4 0.527 14.403789216732314 -8.788986245679798 -7.434057570466054 -1 1 0
2387 389 4 0.527 -1.0522107619617458 -0.7372396713600402 -4.027116913625827 0 0 1
636 69 10 0.06 -12.589688362739375 -12.75923515861291 -7.5699373900736395 0 0 0
637 69 10 0.06 -13.957692691432642 -12.94132010177438 -6.434212075930372 0 0 0
818 89 5 -0.18 -14.231560960709638 -7.136871912792047 -12.39978629922022 0 0 1
262 27 6 0.06 -3.1332658807780263 -8.920451865153185 -11.784629061904509 0 0 0
820 89 6 0.06 -14.698806770465529 -6.1608559165668275 -12.548949964766308 0 0 1
420 45 10 0.06 12.958684296295676 -3.982330321829849 -0.85120741686851 -1 0 0
821 89 6 0.06 -13.877033399557513 -7.426307128373115 -13.323242377372793 0 0 1
588 64 7 0.418 -8.799240637766438 -11.227497986483922 -13.122314574721038 0 0 0
343 36 6 0.06 -6.161294202426406 -6.448528162940692 -13.530869344847563 0 0 0
711 77 6 0.06 -7.083865010712101 -13.069481447446762 -6.892459543922516 1 0 0
175 18 9 -0.6830000000000001 -7.124905700988023 -11.504587828778368 -11.25633748924324 0 0 0
1660 183 9 -0.6830000000000001 -2.43914882673209 -0.7510263553406951 -0.23153578820841503 0 1 0
249 26 10 0.06 13.146194396477146 -0.5460519016885605 -6.453716678556843 0 0 0
176 18 8 0.145 -5.6951521345115825 -11.250869620749512 -11.3197344918714 0 0 0
2194 325 4 0.527 -0.467567969453901 -8.682308164596089 -10.067524651473999 0 0 0
177 18 10 0.06 -5.494460175320974 -10.219894171881052 -11.666340356176306 0 0 0
178 18 10 0.06 -5.165606031712514 -11.895152088737158 -12.042754480830308 0 0 0
181 18 6 0.06 -5.621172377118521 -10.474208343072792 -9.373229466399163 0 0 0
179 18 5 -0.18 -5.096545772692602 -11.25379874584533 -9.916159210290687 0 0 0
180 18 6 0.06 -5.354737990888951 -12.20665750643262 -9.472576411843978 0 0 0
182 18 6 0.06 -3.9529385539891013 -11.055036710916248 -9.858897569564654 0 0 0
344 36 6 0.06 -6.905455614042549 -5.266432620822956 -14.556559196547784 0 0 0
87 8 10 0.06 3.1211837077085853 -6.930786268952421 -12.991512169923139 0 0 0
1024 112 10 0.06 -4.934639878191243 -7.984799713441017 -9.387414400787087 0 1 0
364 39 9 -0.6830000000000001 0.6775221860024594 -9.575624124745843 -11.226924497006635 0 0 0
151 15 10 0.06 9.80633372443977 -0.4341216598627877 -14.455585484670884 0 0 0
259 27 10 0.06 -3.9980440819530294 -10.032195462078494 -13.85191194950693 0 0 0
317 33 6 0.06 9.434297136002048 -6.516648159615022 -0.18606591820078933 0 0 0
255 27 7 0.418 -4.520461011756671 -8.023221063309844 -13.16816882893774 0 0 0
367 39 10 0.06 0.07557004583997795 -11.305633429756893 -12.302796899943724 0 0 0
365 39 8 0.145 0.8622720307917877 -10.888756623990917 -11.64013391137864 0 0 0
366 39 10 0.06 1.8117218526031706 -10.721906934715474 -12.096123357238621 0 0 0
256 27 9 -0.6830000000000001 -4.050121730220139 -8.109256190630761 -14.0083802690496 0 0 0
1020 112 7 0.418 -6.068181671962989 -7.548527040241576 -11.16295500850687 0 1 0
1661 183 8 0.145 -2.6339229160083715 -2.140949070957319 -0.28971537417146287 0 1 0
89 8 5 -0.18 2.0901845270316244 -5.5420726191753555 -14.189306403688976 0 0 0
2394 392 3 -1.054 13.200602217761528 -13.962188505895648 -14.365728721734143 -1 1 1
1215 133 6 0.06 -1.8111870346332974 -12.830415107475378 -7.039937748285782 0 1 0
519 56 10 0.06 -2.0630055895877266 -10.031661892347863 -7.252115293728424 0 0 0
524 56 6 0.06 0.3287559195067793 -9.157850620510136 -6.748515430796463 0 0 0
1089 119 6 0.06 -1.8873302370171476 -12.660944557220471 -10.892816092221883 0 1 0
1090 119 6 0.06 -3.160069585138494 -12.631609427393519 -11.946230063752582 0 1 0
1091 119 6 0.06 -1.8435111368398314 -13.750944739054226 -12.307998728388275 0 1 0
994 109 9 -0.6830000000000001 -12.812474707965164 -14.39537623963783 -12.188864347941818 1 1 0
368 39 5 -0.18 0.9567357429144572 -11.753921799364178 -10.356410621136462 0 0 0
363 39 7 0.418 0.8625661978947576 -9.023290379523555 -11.97424653449592 0 0 0
371 39 6 0.06 0.03945031923855602 -12.255397434723191 -10.019350316429183 0 0 0
370 39 6 0.06 1.6677883103963076 -12.620490315161168 -10.623091997613646 0 0 0
369 39 6 0.06 1.422331337463973 -11.312461805133102 -9.53305965481331 0 0 0
1989 257 3 -1.054 5.466074395622616 -11.994373460326317 -9.204299193248087 -1 0 1
1991 257 4 0.527 6.190523802788835 -11.543128196492248 -8.770978629283483 -1 0 1
1956 246 3 -1.054 6.860761271706469 -14.360305724292505 -10.181312846701692 -1 0 1
1958 246 4 0.527 6.101789030958621 -13.855717030773272 -9.888793977799093 -1 0 1
1957 246 4 0.527 7.474781732229349 -13.702639966649022 -10.50791734687597 -1 0 1
376 40 10 0.06 5.7556032309225635 -8.374460238072288 -12.235803681669037 0 0 0
372 40 7 0.418 5.791128551152898 -10.754076781253078 -10.624590566566706 0 0 0
373 40 9 -0.6830000000000001 6.245397571099641 -10.206319331588844 -11.328717685751803 0 0 0
374 40 8 0.145 5.333008364984469 -9.330357533829332 -11.942063933336328 0 0 0
375 40 10 0.06 4.807421692205711 -9.817565083209644 -12.81075375517192 0 0 0
1557 171 6 0.06 1.8653168085965355 -7.204218805922873 -8.278498076619876 -1 0 1
379 40 6 0.06 4.726195454503948 -8.462985917821651 -10.076322961286582 0 0 0
377 40 5 -0.18 4.311553368639288 -9.017660027579211 -10.849583617793535 0 0 0
1990 257 4 0.527 4.7203243488783 -11.869856977718628 -8.617299702925546 -1 0 1
17 0 2 -1 5.152039892030192 -0.48893488461875023 -8.20435927431883 0 0 1
1558 171 6 0.06 3.3465773483738346 -6.4877116893771465 -7.8863724875122045 -1 0 1
85 8 9 -0.6830000000000001 1.0225567196144052 -7.023342491095037 -12.743492725977951 0 0 0
84 8 7 0.418 0.47792939469573525 -6.381103129800785 -12.349491185721584 0 0 0
1559 171 6 0.06 2.585505011624875 -6.0332336230703145 -9.376143638380135 -1 0 1
1251 137 6 0.06 6.620380546380485 -7.901726780432381 -9.100523128785177 -1 0 0
1827 203 3 -1.054 0.1386632190615149 -1.205640268354795 -9.797025353169724 0 -1 0
263 27 6 0.06 -1.6240157526386731 -8.514458192076827 -12.569239406887444 0 0 0
585 63 6 0.06 -13.791052965662793 -11.224378338265986 -14.48920064271555 1 0 1
1317 145 7 0.418 10.675061002035456 -13.98236299481892 -8.234536457480695 0 1 0
2357 379 4 0.527 13.458522216139077 -11.668338338337904 -13.577519472086047 0 1 1
993 109 7 0.418 -12.654040370514663 -13.51949500128385 -11.778392035038648 1 1 0
1188 130 6 0.06 14.117482980747479 -11.182196045178394 -9.60498741008346 -1 1 0
1000 109 6 0.06 -13.75992832589197 -13.841238015603851 -9.376061690935007 1 1 0
2356 379 4 0.527 13.702200219099215 -10.458367454362529 -12.700908510025712 0 1 1
2138 306 4 0.527 6.234412456696159 -14.336946383213814 -0.034362351530161206 0 1 0
1185 130 10 0.06 12.978017998472467 -13.431466086337913 -8.630718201526705 -1 1 0
1909 230 4 0.527 8.255461883750929 -10.01704544183876 -8.984909667376876 -1 0 0
1186 130 10 0.06 12.848997751134192 -12.07458309730212 -7.698490856464717 -1 1 0
1189 130 6 0.06 12.523827334638693 -10.821781587144663 -10.070573533374358 -1 1 0
1184 130 8 0.145 12.59017155638977 -12.464007876125534 -8.67037055997422 -1 1 0
1183 130 9 -0.6830000000000001 11.217398721708324 -12.52326589089487 -9.00319416791272 -1 1 0
1919 233 4 0.527 11.322280655878892 -11.599968889261376 -12.4225993749915 -1 0 0
1917 233 3 -1.054 10.677736511247648 -12.095638701365553 -11.917534868589046 -1 0 0
1918 233 4 0.527 10.731053694949019 -12.984974624424787 -12.267470278877271 -1 0 0
1887 223 3 -1.054 9.176272671707796 -10.216328936874412 -10.806193173704912 -1 0 0
1888 223 4 0.527 9.652929919086862 -10.861770167254818 -11.32813128720849 -1 0 0
1889 223 4 0.527 8.351567605156191 -10.090065227352099 -11.275378525242989 -1 0 0
1187 130 5 -0.18 13.150199921869277 -11.622100088015385 -9.813185860893213 -1 1 0
1182 130 7 0.418 11.14115162955187 -12.235923507073487 -9.941825381395208 -1 1 0
2213 331 4 0.527 10.374688756927089 -8.480627295171292 -8.267256758523455 -1 1 0
1908 230 3 -1.054 7.781711476108814 -10.636667305480197 -8.430071668721034 -1 0 0
1910 230 4 0.527 8.445198647566453 -10.97758430620551 -7.83025808407379 -1 0 0
2211 331 3 -1.054 9.688320078679801 -8.07032740197456 -8.793344118261661 -1 1 0
751 82 9 -0.6830000000000001 10.620592206701744 -14.476572661938752 -13.146325955007564 -1 0 1
1190 130 6 0.06 13.370050016108323 -12.133721680117471 -10.736084244661004 -1 1 0
2212 331 4 0.527 9.592469810952757 -8.64479122257449 -9.55296238527588 -1 1 0
1846 209 4 0.527 10.24924095568917 -11.751105492197365 -7.391110245714506 0 0 0
247 26 9 -0.6830000000000001 12.27718123593688 -0.08645895729122977 -8.34577458538325 0 0 0
2302 361 4 0.527 -1.0396311444209623 -5.278009618165578 -0.33470360017270195 0 1 0
1047 115 7 0.418 0.1521909998858746 -9.25072354318376 -0.46639717581201623 0 1 0
2038 273 4 0.527 -11.324186862035297 -0.6633871231039521 -6.949528281284101 1 0 0
1279 140 6 0.06 8.8246700121117 -6.02162734503089 -12.579447641522929 -1 0 0
1272 140 7 0.418 9.691134275138197 -4.330693559054684 -13.576643007685513 -1 0 0
1630 179 6 0.06 8.260360783472738 -10.311261862876618 -13.891243764324708 -1 1 1
2355 379 3 -1.054 13.062227633868822 -10.842326440180802 -13.300263575071284 0 1 1
817 89 10 0.06 13.308719058846936 -8.140089801259247 -12.492996842286612 -1 0 1
1300 143 9 -0.6830000000000001 0.04598258280325496 -12.98526530713723 -4.1752835672588215 0 1 0
816 89 10 0.06 14.089869074349942 -7.996042968337787 -10.827220656108343 -1 0 1
1866 216 3 -1.054 -10.206373817396095 -7.78205261567985 -10.942467915273369 1 0 0
1303 143 10 0.06 1.6756929907166906 -12.958400003000547 -5.6022174967165785 0 1 0
1855 212 4 0.527 -11.623080531640717 -2.898430187554011 -13.728300379129006 0 0 0
1854 212 3 -1.054 -11.787859468784891 -2.1249127243899153 -13.189102293624954 0 0 0
1867 216 4 0.527 -10.215003496463877 -6.950179108856217 -11.415889357589698 1 0 0
1873 218 4 0.527 -13.246526149394693 -3.170326994822199 -10.702728964589285 0 0 0
1872 218 3 -1.054 -12.420541519658741 -3.476254797547968 -10.328064532613656 0 0 0
1933 238 4 0.527 -10.911937320367063 -4.771716653954808 -13.043651424084311 0 0 0
1934 238 4 0.527 -11.211959492421434 -4.4058298025366405 -11.605608042905258 0 0 0
1932 238 3 -1.054 -10.727565061055925 -5.033702933560688 -12.141661434040682 0 0 0
1832 204 4 0.527 -11.060970217282653 -2.0659551890009933 -10.411406774745348 0 0 0
1830 204 3 -1.054 -10.468793777337941 -1.4031116516038047 -10.766627002350925 0 0 0
1831 204 4 0.527 -10.580189841576551 -1.465418294121081 -11.715270706233127 0 0 0
2343 375 3 -1.054 -14.473179064370818 -2.512764828476687 -12.266799599030492 0 0 1
2344 375 4 0.527 14.410118033106315 -2.168742090745141 -11.598641983422539 -1 0 1
2345 375 4 0.527 14.451271424455228 -3.07516326585203 -12.810484534272758 -1 0 1
2073 285 3 -1.054 14.703548715894126 -1.4326301893191218 -9.67761216198852 -1 0 1
1856 212 4 0.527 -12.476511055796703 -2.3973623104786945 -12.582681532501853 0 0 0
2047 276 4 0.527 -13.777942857543673 -2.457423029308748 -8.33442565920627 0 0 1
2180 320 4 0.527 -8.380844835364977 -1.9060208330412216 -10.458989469298045 1 0 0
336 36 7 0.418 -9.12062821886956 -4.446166311987085 -12.598266038129303 0 0 0
337 36 9 -0.6830000000000001 -8.320454584771419 -3.94831039640156 -12.691286944018433 0 0 0
342 36 6 0.06 -8.026018255758817 -6.398800303103302 -13.642070715965135 0 0 0
808 88 10 0.06 14.380976049455967 -4.503451303641633 -9.262406648165332 0 0 1
806 88 8 0.145 13.3355602273765 -4.971427398958356 -9.243637536276589 0 0 1
805 88 9 -0.6830000000000001 12.424028515521446 -4.246642839545391 -8.36735403598231 0 0 1
1628 179 5 -0.18 9.099753692239887 -10.01772292540318 -14.545769888396201 -1 1 1
1874 218 4 0.527 -12.681086690855102 -4.094821811600253 -9.645637280292288 0 0 0
1987 256 4 0.527 -6.3136518509647 -1.1840018840820665 -0.7781933317410488 0 0 0
2046 276 3 -1.054 -13.651188371242347 -2.995096875379412 -7.5527249457504375 0 0 1
64 5 6 0.06 -10.016562135909245 -3.7582377814396697 -7.827512744615832 0 0 0
65 5 6 0.06 -9.329604150400922 -3.7021659047386635 -6.28866487890903 0 0 0
62 5 5 -0.18 -9.202642789874798 -4.218461871850453 -7.158977759872305 0 0 0
63 5 6 0.06 -9.473536654782222 -5.272530281317417 -7.019139913098756 0 0 0
59 5 8 0.145 -7.709751488425631 -4.134469943847117 -7.631927524414209 0 0 0
1882 221 4 0.527 -11.07993798286435 -0.8579662597354734 -14.482468718887702 0 0 0
804 88 7 0.418 12.889379557004073 -3.9823205985860586 -7.559739399977568 0 0 1
663 72 10 0.06 -13.937376966714806 -7.841206606589244 -1.934364727338961 1 0 0
2193 325 3 -1.054 -1.220454266611556 -8.191764303082433 -9.737759840649398 0 0 0
2195 325 4 0.527 -1.3665963215749066 -7.508198087826862 -10.391667781995746 0 0 0
1028 112 6 0.06 -4.485652117618082 -5.641770643528687 -8.728185375885527 0 1 0
1026 112 6 0.06 -6.049315060879843 -5.794322617005248 -9.785281874567422 0 1 0
1025 112 5 -0.18 -4.95707816870196 -5.891081368247201 -9.77462182668188 0 1 0
1022 112 8 0.145 -4.557587225711876 -7.316109336367273 -10.130093355740698 0 1 0
2178 320 3 -1.054 -7.54437954433375 -1.9799182623884093 -10.918424835943787 1 0 0
2179 320 4 0.527 -7.687234846191183 -2.668539603115807 -11.56773900448314 1 0 0
1924 235 4 0.527 0.6248351869887276 -2.6475742726335447 -10.834930343273626 0 0 0
339 36 10 0.06 -7.5969905078430475 -5.571778253397209 -11.561857490188189 0 0 0
966 106 7 0.418 -5.616380302477737 -2.0891287739276443 -11.06733681399264 0 0 0
2295 359 3 -1.054 1.5105490568919713 -7.721614440654845 -0.8605381269753174 0 0 0
967 106 9 -0.6830000000000001 -4.695214955866195 -2.159636100135879 -10.93403292948579 0 0 0
1759 194 9 -0.6830000000000001 -2.4932172262819225 -1.7838379595322404 -9.12632279803023 0 0 0
1758 194 7 0.418 -3.227895342177547 -1.8106086472615512 -9.745781161286303 0 0 0
1027 112 6 0.06 -4.556771205026658 -5.2223141404780105 -10.514871742643916 0 1 0
1023 112 10 0.06 -3.476376238274762 -7.369031415451047 -10.294753771575731 0 1 0
1760 194 8 0.145 -2.588622161002238 -2.9979480055865615 -8.386457591251034 0 0 0
1021 112 9 -0.6830000000000001 -5.140599972124365 -7.661041429636937 -11.330611865630747 0 1 0
729 79 6 0.06 -6.2667900984956315 -8.631409923205347 -1.5919346574379336 0 0 0
338 36 8 0.145 -7.236105184004183 -4.8749654578100134 -12.391029036065845 0 0 0
340 36 10 0.06 -6.275574914547887 -4.384498049512947 -12.138489232146451 0 0 0
1763 194 5 -0.18 -1.6682084096629612 -2.979740111920968 -7.179243102201267 0 0 0
1761 194 10 0.06 -2.2801695896653165 -3.907539655197514 -9.094113536543635 0 0 0
1762 194 10 0.06 -3.610442633902162 -3.0833660047878073 -8.039363819571276 0 0 0
1491 164 10 0.06 -3.017205645326122 -4.6690814856087695 -12.172547621858184 0 0 1
1829 203 4 0.527 -0.788398117836083 -1.1417966899823586 -9.567466390703494 0 -1 0
1490 164 8 0.145 -2.2679976395463797 -5.459390516910927 -12.502251079668106 0 0 1
1488 164 7 0.418 -1.0620898320257446 -4.918630421615719 -11.204639833447882 0 0 1
1494 164 6 0.06 -2.0660405281772256 -4.5242668089766855 -14.58901572393016 0 0 1
1493 164 5 -0.18 -1.454240140317875 -4.885216295668348 -13.708682668344668 0 0 1
1496 164 6 0.06 -0.8469605157069875 -4.012237432682474 -13.363998175011822 0 0 1
1489 164 9 -0.6830000000000001 -1.36438679675304 -5.773006301578668 -11.456047837442782 0 0 1
1492 164 10 0.06 -2.874995797142141 -6.369196861345207 -12.782350705045197 0 0 1
516 56 7 0.418 -1.8350401390580586 -8.213465380971655 -8.123331619161675 0 0 0
60 5 10 0.06 -7.648044762257795 -4.7584784766918595 -8.508607170578534 0 0 0
970 106 10 0.06 -3.308107084239831 -2.2580817157677924 -12.45940727916312 0 0 0
968 106 8 0.145 -4.145904704158559 -1.726639215238892 -12.211797304321628 0 0 0
969 106 10 0.06 -4.851333235868454 -2.044032884751271 -13.056527443376748 0 0 0
1495 164 6 0.06 -0.7847642122013951 -5.680661426126397 -14.07150277736995 0 0 1
2199 327 3 -1.054 3.4071822240467213 -0.1392982602389985 -14.30737382422599 0 0 0
380 40 6 0.06 4.0258446756880275 -9.965484130668347 -10.525008912014851 0 0 0
1085 119 8 0.145 -3.3221511046846235 -14.445507213636331 -10.829904994576257 0 1 0
1766 194 6 0.06 -0.6131524473389742 -2.697944946084055 -7.196983758105547 0 0 0
1299 143 7 0.418 0.1978462882465699 -13.387283385342782 -3.3164226731821653 0 1 0
88 8 10 0.06 2.3765811191005533 -5.578449787280176 -12.088398895244744 0 0 0
1923 235 3 -1.054 0.5679628709171425 -3.5990725493910602 -10.747566252447486 0 0 0
219 23 7 0.418 6.773632019762303 -3.7510794676651127 -13.796918212002367 0 0 0
1556 171 5 -0.18 2.4088456943073666 -6.2206942629410715 -8.343772420933941 -1 0 1
1925 235 4 0.527 1.0680794121394115 -3.797702740015099 -9.955956903902432 0 0 0
1551 171 7 0.418 2.9144370109588777 -3.702059190346045 -7.925635628139941 -1 0 1
1552 171 9 -0.6830000000000001 2.024828759570646 -3.890061280535214 -8.257347231461335 -1 0 1
1553 171 8 0.145 1.53610719370565 -5.123123048739339 -7.854798322268647 -1 0 1
226 23 6 0.06 3.882269106674368 -3.1181520513897905 -11.490529248151038 0 0 0
224 23 5 -0.18 4.73655811668657 -3.692801099558068 -11.851538005063093 0 0 0
227 23 6 0.06 4.875624712884658 -4.530009070406573 -11.097645252470196 0 0 0
221 23 8 0.145 5.991248572992557 -2.9565374866829597 -12.199627380943198 0 0 0
378 40 6 0.06 3.4452644524720277 -8.490291416485466 -11.209777946408437 0 0 0
2159 313 4 0.527 4.876795811489043 -2.6583761267103085 -7.790220965366413 -1 0 0
1009 110 6 0.06 3.9682225838795517 -2.125411064873683 -0.42172082237753905 0 0 -1
225 23 6 0.06 4.335102498329682 -4.097486809067345 -12.694487255374613 0 0 0
2158 313 4 0.527 5.559490250068009 -3.834039365394716 -8.456253620839274 -1 0 0
222 23 10 0.06 5.799842659969979 -2.127757855583031 -12.907426508374593 0 0 0
1249 137 10 0.06 6.105059485512587 -5.477287538136764 -9.833218929476361 -1 0 0
1247 137 8 0.145 6.947847173970445 -5.712576739545845 -9.244883894291158 -1 0 0
223 23 10 0.06 6.530317899269644 -2.7155839792000958 -11.26627841811737 0 0 0
220 23 9 -0.6830000000000001 6.918324774767534 -3.816970070924688 -12.85702360854928 0 0 0
1248 137 10 0.06 7.786952371321917 -5.930493750347923 -9.875403560354915 -1 0 0
261 27 6 0.06 -2.049912853877146 -10.13380149967097 -12.387778700493831 0 0 0
1897 226 4 0.527 -11.101469916962666 -0.568326217452567 -9.378279220531255 0 0 0
435 47 7 0.418 4.5848138491637975 -14.379650687714872 -7.488836703304647 0 0 0
1747 192 6 0.06 -6.162986118456578 -13.75290555799517 -14.648778472796398 0 1 1
86 8 8 0.145 2.1962620221432267 -6.348574238348283 -12.891034686978909 0 0 0
257 27 8 0.145 -3.2409442230735 -9.192649588945105 -13.88720008322666 0 0 0
1280 140 6 0.06 10.331337984898745 -5.897630415758856 -11.833822018682508 -1 0 0
1245 137 7 0.418 8.088674663663479 -5.08441611550518 -7.954187562467162 -1 0 0
1278 140 6 0.06 9.938226885869764 -7.43079739576931 -12.38094127881418 -1 0 0
1757 193 6 0.06 13.7992290835012 -8.905927561261674 -0.20552802615959997 0 0 0
1834 205 4 0.527 9.980903309691374 -6.449529923090591 -7.79643403918421 0 0 0
2140 307 4 0.527 7.197039341440487 -1.525030282778184 -8.097307004970986 -1 0 0
1252 137 6 0.06 5.6424447276557395 -6.6994315172866745 -8.031164405099961 -1 0 0
326 34 6 0.06 -6.76398800249183 -4.653938607531073 -0.48583178961219886 1 0 0
1795 198 9 -0.6830000000000001 13.543446831852556 -4.033878346521801 -13.961926759457995 -1 0 1
1794 198 7 0.418 12.637291080682019 -4.290876884618614 -13.96752530561525 -1 0 1
1250 137 5 -0.18 6.650951721023212 -6.946315239168856 -8.464307700599619 -1 0 0
1253 137 6 0.06 7.3624745538011 -7.01715839084882 -7.679785603382347 -1 0 0
421 45 10 0.06 11.593344783594492 -4.1769929971341675 -1.791766763976101 -1 0 0
329 35 8 0.145 10.075824799379536 -1.6560205272675717 -10.658523552689129 0 0 0
2139 307 3 -1.054 8.063445408040781 -1.9239545747022895 -8.017207870767702 -1 0 0
1273 140 9 -0.6830000000000001 10.52997354571394 -4.555182781910018 -13.879724667210267 -1 0 0
1274 140 8 0.145 10.479452930752924 -5.94284696598703 -14.000026649104353 -1 0 0
811 88 6 0.06 12.852509185826516 -3.7693266877036997 -10.935944373041425 0 0 1
2243 341 4 0.527 4.224208433221381 -0.39123068002686345 -10.283637898872678 0 0 0
810 88 6 0.06 13.198181930421065 -5.3978392842613925 -11.355118365113267 0 0 1
1277 140 5 -0.18 9.868959885275082 -6.409755995339793 -12.681770727499348 -1 0 0
809 88 5 -0.18 12.724342357238335 -4.780684500928249 -10.622068791101949 0 0 1
812 88 6 0.06 11.695440637666383 -5.041676874425336 -10.584827978512733 0 0 1
335 35 6 0.06 11.22381639712011 -1.6178760481977559 -12.573461631864795 0 0 0
2075 285 4 0.527 13.809134835290344 -1.3151334643544086 -9.35755872813776 -1 0 1
330 35 10 0.06 9.076843358017769 -1.7892470536461147 -11.080112217423808 0 0 0
332 35 5 -0.18 11.013662850301504 -1.0976543665803362 -11.684827679723615 0 0 0
331 35 10 0.06 10.277670449578352 -2.7895848237679157 -10.384305611677611 0 0 0
333 35 6 0.06 11.98755687920017 -0.9876890880452169 -11.337691127995646 0 0 0
440 47 5 -0.18 6.682361277811207 -14.264930134512774 -6.592058900008242 0 0 0
807 88 10 0.06 13.277724469343543 -6.050906604169981 -9.007946929659596 0 0 1
328 35 9 -0.6830000000000001 10.14456164829491 -0.803835300660559 -9.47532370691853 0 0 0
327 35 7 0.418 9.426904594860996 -1.0625949122395468 -8.889432531130502 0 0 0
150 15 10 0.06 8.164658829660063 -1.0675088558227 -13.924810554234414 0 0 0
1072 117 6 0.06 -0.8195029542545971 -1.1293663354636259 -13.867596532820365 0 0 0
1246 137 9 -0.6830000000000001 7.328214086767797 -4.716363044558829 -8.337803250683148 -1 0 0
2141 307 4 0.527 7.9244444963874905 -2.845500824177032 -8.235490078526508 -1 0 0
250 26 10 0.06 11.823963926899822 -1.6228321109830368 -7.172701767477983 0 0 0
248 26 8 0.145 12.156274882219652 -0.5863896351927664 -7.004454061702272 0 0 0
2072 284 4 0.527 -12.42432867051241 -8.41895504237422 -7.108209070518402 1 0 1
2070 284 3 -1.054 -11.502752926720209 -8.55108474385327 -6.8858225730173865 1 0 1
1849 210 4 0.527 -9.846044282390716 -8.444936239474947 -7.84493187384773 1 0 0
2313 365 3 -1.054 -14.12764052474655 -8.869926308026097 -7.565357998888531 0 1 0
2071 284 4 0.527 -11.357131053406622 -7.990856408132246 -6.1234877742915135 1 0 1
639 69 6 0.06 -11.560948039982007 -14.11482173529789 -5.589921804712944 0 0 0
641 69 6 0.06 -11.165922539037645 -12.584150031773802 -5.231187780219605 0 0 0
640 69 6 0.06 -12.515639428873207 -13.176042923921301 -4.355000843454967 0 0 0
541 58 6 0.06 -8.170854582033197 -2.330567360114337 -4.093563299469638 0 0 0
638 69 5 -0.18 -12.065287077060649 -13.212596047961494 -5.371085657609674 0 0 0
709 77 10 0.06 -8.654624317968018 -13.874344864265657 -4.1829536743177 1 0 0
668 72 6 0.06 -13.71424161392704 -6.044330730463972 -3.6302890061600834 1 0 0
1803 199 7 0.418 -8.039785340369445 -7.672344311241954 -7.1165266052012415 0 1 1
635 69 8 0.145 -12.917585028652825 -12.666025142129985 -6.533378269247022 0 0 0
634 69 9 -0.6830000000000001 -13.04729241047893 -11.298999999443833 -6.260150212626337 0 0 0
633 69 7 0.418 -12.161649692744607 -10.97308079772238 -6.273863604468943 0 0 0
1527 168 10 0.06 -8.87653261221826 -5.792542280496486 -4.178027120976807 0 1 0
2414 398 4 0.527 14.526590828895564 -11.661957119243898 -5.777266404068163 -1 1 0
2314 365 4 0.527 -13.871280853043675 -9.609537986141936 -7.014476737692188 0 1 0
209 21 6 0.06 -14.075051804680696 -12.01156963061678 -3.1565771113456247 1 0 0
208 21 6 0.06 -14.680805280889347 -10.419701361472738 -2.5156710227636747 1 0 0
206 21 5 -0.18 -14.339129505944415 -11.441403343039939 -2.2235731482086027 1 0 0
204 21 10 0.06 14.368974229593327 -13.197632952201914 -1.343719416240436 0 0 0
207 21 6 0.06 -13.478078977799514 -11.38859848742432 -1.552050740773499 1 0 0
1070 117 5 -0.18 -0.07331337639358537 -0.8602397381542222 -13.188802080307154 0 0 0
710 77 5 -0.18 -7.7581290744463525 -12.901934299564871 -5.981567503109872 1 0 0
1811 199 6 0.06 -8.033707262282366 -9.545071434382777 -6.6134719404344455 0 1 1
1302 143 10 0.06 1.4453310173467102 -11.52388157396053 -4.452897913574313 0 1 0
708 77 10 0.06 -6.933226071666354 -14.305945952477606 -4.386598793515326 1 0 0
732 80 7 0.418 -8.262405811944149 -0.8030445101491761 -12.52346332874351 0 0 1
1051 115 10 0.06 -2.474331181785086 -9.863495928311917 -0.7608206070203511 0 1 0
2201 327 4 0.527 3.936765832059649 -0.12865638801459767 -13.510101074209013 0 0 0
1828 203 4 0.527 0.49336465407204955 -1.851167910963479 -9.185717844569012 0 -1 0
712 77 6 0.06 -7.539723210718682 -11.930279964897426 -5.485254911500146 1 0 0
517 56 9 -0.6830000000000001 -2.1365525721208165 -8.0663008640459 -7.179351053695657 0 0 0
707 77 8 0.145 -7.851461056752217 -13.984154006863891 -4.867203122188268 1 0 0
1087 119 10 0.06 -3.986562303228302 -13.939807282913419 -10.013991967489693 0 1 0
1213 133 10 0.06 -3.12971716531216 -13.929018630280511 -4.404713341045696 0 1 0
1808 199 5 -0.18 -7.093229534712515 -9.439768533334433 -6.052207105470973 0 1 1
1805 199 8 0.145 -6.393201542298225 -8.221689963599928 -6.534277637281427 0 1 1
1810 199 6 0.06 -6.342684117923868 -10.19704593242101 -6.26830285500508 0 1 1
1809 199 6 0.06 -7.247329267673267 -9.257718140687652 -5.01433922766042 0 1 1
1636 180 10 0.06 -5.220589650177862 -11.459780435424433 -0.8003242568221083 0 1 0
1806 199 10 0.06 -5.686850829625897 -7.929549928095348 -5.796497860543278 0 1 1
1635 180 10 0.06 -4.244193248823736 -10.53635683927779 -1.997300391314898 0 1 0
1212 133 10 0.06 -4.095004891701054 -12.861815901249646 -5.61901876290951 0 1 0
1640 180 6 0.06 -5.358915277081943 -11.023101680982176 -3.88349077982987 0 1 0
1211 133 8 0.145 -3.1298825104110115 -13.24263979522955 -5.289400952130814 0 1 0
1639 180 6 0.06 -6.479835551975148 -12.283901651411703 -3.2454274042226317 0 1 0
1638 180 6 0.06 -6.510824046588887 -10.485739252533381 -2.766334843788126 0 1 0
1214 133 5 -0.18 -2.2051118880250016 -13.645798540979898 -6.4339953496593925 0 1 0
1209 133 7 0.418 -1.6629025652614224 -12.299678974668916 -4.703870487075848 0 1 0
1210 133 9 -0.6830000000000001 -2.5735002266229685 -12.06355062218877 -4.791793690451954 0 1 0
1633 180 9 -0.6830000000000001 -3.9531075528408035 -12.57072832231396 -2.1058018764830084 0 1 0
1632 180 7 0.418 -3.3708150358446822 -12.422645533502148 -2.883799641018923 0 1 0
1637 180 5 -0.18 -5.896568559049426 -11.353966342359875 -3.0148873112771373 0 1 0
1634 180 8 0.145 -4.889567838760184 -11.456943998307253 -1.8779084643161728 0 1 0
518 56 8 0.145 -1.8956522401734937 -9.297877371556483 -6.487303185062871 0 0 0
1053 115 6 0.06 -1.9890016164924713 -9.303610030453168 -3.221907028965262 0 1 0
2060 280 4 0.527 -2.7202846178129256 -13.401334865845008 -0.6411469735617246 0 0 0
520 56 10 0.06 -2.6938170355655036 -9.474534421321895 -5.723378918430415 0 0 0
1217 133 6 0.06 -1.4483111580630013 -14.264337552562266 -6.070402894395841 0 1 0
2056 279 4 0.527 8.412302159327158 -2.4064602852522743 -6.184585535658671 0 0 0
523 56 6 0.06 -0.21220464841064235 -8.539705003202933 -5.309353153061005 0 0 0
522 56 6 0.06 -0.3464624195032826 -10.292432455995534 -5.573126694863438 0 0 0
521 56 5 -0.18 -0.44669224947522324 -9.343356524359919 -6.027659989137861 0 0 0