LAMMPS data file via write_data, version 2 Aug 2023, timestep = 52000, units = real

3040 atoms
10 atom types
2400 bonds
5 bond types
3000 angles
6 angle types
2400 dihedrals
4 dihedral types

-15.775826423836333 15.775826423836333 xlo xhi
-15.775826423836333 15.775826423836333 ylo yhi
-15.775826423836333 15.775826423836333 zlo zhi

Masses

1 22.99
2 35.45
3 15.999
4 1.00784
5 12.011
6 1.00784
7 1.00784
8 12.011
9 15.999
10 1.00784

Pair Coeffs # lj/cut/tip4p/long

1 0.1075 2.31
2 0.1004 4.3
3 0.1848 3.165
4 0 0
5 0.066 3.5
6 0.03 2.5
7 0 0
8 0.066 3.5
9 0.17 3.12
10 0.03 2.5

Bond Coeffs # harmonic

1 0 0.9572
2 268 1.529
3 340 1.09
4 320 1.41
5 553 0.945

Angle Coeffs # harmonic

1 0 104.52
2 33 107.8
3 37.5 110.7
4 50 109.5
5 35 109.5
6 55 108.6

Dihedral Coeffs # opls

1 -0.356 -0.174 0.492 0
2 0 0 0.468 0
3 0 0 0.45 0
4 0 0 0.318 0

Atoms # full

748 79 5 -0.18 -14.742773925137437 -13.617910854603084 -10.100990335449982 0 0 0
745 79 8 0.145 -13.547683408494503 -13.561118437850734 -10.9377293747931 0 0 0
259 25 8 0.145 -12.33572307031668 -9.338692454678792 -14.042701136920432 0 0 0
746 79 10 0.06 -13.19462306159172 -12.55183213592937 -11.269325926777174 0 0 0
749 79 6 0.06 -15.026641707112338 -14.58187201152922 -9.72820734233543 0 0 0
390 39 6 0.06 -0.7033796238896137 -9.344445489199785 -10.022103425474322 0 0 0
258 25 9 -0.6830000000000001 -11.009747043574487 -9.453943485321695 -14.601829957879128 0 0 0
2116 292 4 0.5564 -11.373007945478491 -12.942463868466174 -15.07581727574661 0 0 0
2487 416 4 0.5564 -12.38517751006501 -14.315244201982964 -13.36965165884374 0 0 0
257 25 7 0.418 -10.386843217315263 -8.88855811002141 -14.144300520355722 0 0 0
2488 416 4 0.5564 -10.899100788271106 -14.066396385729544 -13.516907381091546 0 0 0
2486 416 3 -1.1128 -11.620063784062832 -14.580975388509616 -13.879823276779364 0 0 0
662 70 7 0.418 -8.756241970351375 -13.025681002379828 -13.243411909549678 0 0 0
663 70 9 -0.6830000000000001 -9.335874524211981 -13.438783821498923 -12.611422800852939 0 0 0
1028 110 6 0.06 -13.290363292621485 -10.219574198496055 -9.63644652336452 0 0 0
1027 110 5 -0.18 -13.288985818329746 -10.480816620961281 -8.559872516371666 0 0 0
1030 110 6 0.06 -12.405104254838957 -10.113294997787886 -8.092148274033063 0 0 0
1029 110 6 0.06 -13.215805049184013 -11.557181291124817 -8.498842507308622 0 0 0
665 70 10 0.06 -8.405212780818271 -13.077143335631172 -10.747518175906402 0 0 0
666 70 10 0.06 -10.108570203071785 -13.049315523157706 -10.697942698980452 0 0 0
664 70 8 0.145 -9.26401384736589 -12.758143390642426 -11.356960047805174 0 0 0
264 25 6 0.06 -12.182827045333774 -11.263826689518861 -13.209508518010606 0 0 0
263 25 6 0.06 -12.093381682878688 -10.170272336778782 -11.949144994928048 0 0 0
265 25 6 0.06 -13.622795490967032 -10.379362022296156 -12.589060585354051 0 0 0
262 25 5 -0.18 -12.586877151301568 -10.356165537672805 -12.885920540618754 0 0 0
744 79 9 -0.6830000000000001 -13.80197329568255 -14.339870494849432 -12.115587810678985 0 0 0
260 25 10 0.06 -12.990751314075052 -9.59525341311316 -14.840235736880793 0 0 0
670 70 6 0.06 -10.125940069583137 -10.984995217441234 -12.325935828123015 0 0 0
667 70 5 -0.18 -9.253136399973474 -11.274100994873539 -11.801167314029543 0 0 0
669 70 6 0.06 -9.235339949249628 -10.6487053192602 -10.856555567963092 0 0 0
747 79 10 0.06 -12.758212160162739 -13.966469799057851 -10.289517980683765 0 0 0
668 70 6 0.06 -8.368835829423476 -11.073848830799088 -12.36032772024803 0 0 0
2074 278 4 0.5564 -8.029552590959387 -8.791255749919287 -14.426976205006966 0 0 0
261 25 10 0.06 -12.662885697822706 -8.352875648651601 -13.638029313806275 0 0 0
2179 313 4 0.5564 -5.166351340617647 -1.074688774628756 -15.2570418820982 0 0 1
396 40 10 0.06 -10.637225838914413 -11.680006191081024 -8.472574255673694 0 0 0
64 3 5 -0.18 -2.097080981254946 -15.198633440854316 -4.812613359068848 0 1 0
2115 292 4 0.5564 -10.99049388799082 -11.478949110443795 -15.137793594674998 0 0 0
218 20 6 0.06 -6.648172775759724 -8.826229689623375 -1.3749976698631787 0 0 0
1847 203 3 -1.1128 -10.983453327111414 -0.6554758352987555 -10.125194811690656 0 0 0
2101 287 4 0.5564 -7.466333990597564 -10.944015686186948 -14.67306242983343 0 0 0
153 13 10 0.06 -8.15377985694649 -8.473482632665618 -8.735924042251792 0 0 0
2219 327 3 -1.1128 -9.057871658191429 -8.039986957935461 -13.255178327921408 0 0 0
1160 125 10 0.06 -13.426215812812936 -13.89360172768729 -6.793377271559166 1 0 0
2072 278 3 -1.1128 -7.4222295024471965 -9.1743615608959 -15.059965772612264 0 0 0
67 3 6 0.06 -2.3865352784814444 -15.770576258999533 -5.702733313513894 0 1 0
1280 138 6 0.06 -3.507124188506193 -11.508283710601239 -13.933703249541628 0 0 0
1281 138 6 0.06 -3.667115339739219 -10.157746648714323 -12.722625165564137 0 0 0
1274 138 7 0.418 -5.920262145473409 -12.630245527913425 -13.332739814800448 0 0 0
2073 278 4 0.5564 -6.562531664418676 -8.845633620663762 -14.79701171481295 0 0 0
194 18 7 0.418 -3.4492920161153027 -13.777712138502233 -9.124756482374806 0 0 0
2058 273 4 0.5564 -4.536403209009745 -7.699369555014805 -14.755721870443884 0 0 0
2057 273 3 -1.1128 -5.170480064454322 -8.199276590758295 -14.241594814256878 0 0 0
1275 138 9 -0.6830000000000001 -5.336653655720864 -12.9071838041953 -12.607355730024004 0 0 0
1277 138 10 0.06 -3.5064317747805855 -12.44112798423705 -11.643893243733135 0 0 0
1276 138 8 0.145 -4.46281810339654 -11.952189272744459 -12.01970833811396 0 0 0
202 18 6 0.06 -1.1236183353654088 -15.728782129904639 -10.576806307919327 0 0 0
199 18 5 -0.18 -1.9968583402589442 -15.138055004616145 -10.294616443346708 0 0 0
201 18 6 0.06 -2.976085367538195 -15.61685453793954 -10.500447025462833 0 0 0
200 18 6 0.06 -1.8610308451380533 -14.184399806482176 -10.725383749416704 0 0 0
151 13 8 0.145 -7.050719003480982 -8.367857152689538 -8.847812920975505 0 0 0
2748 503 4 0.5564 -6.329832870069557 -14.393887057723195 -9.45454355110132 0 0 0
1278 138 10 0.06 -4.988303023944926 -11.380237862949208 -11.22327297576052 0 0 0
2749 503 4 0.5564 -5.686391404844667 -13.602406463502042 -10.573281669549651 0 0 0
2747 503 3 -1.1128 -5.631754706972689 -13.763210708294418 -9.631239235130465 0 0 0
154 13 5 -0.18 -6.69498151855273 -8.812263032549314 -10.265181621343032 0 0 0
1282 138 6 0.06 -4.993523319071571 -10.623978423624719 -13.66312095572684 0 0 0
157 13 6 0.06 -6.8446927125266495 -9.931399951018106 -10.366980736858117 0 0 0
2099 287 3 -1.1128 -7.451649724206227 -11.897119040019792 -14.585509382195632 0 0 0
1279 138 5 -0.18 -4.099025184325987 -11.03714166930401 -13.175403027215353 0 0 0
2100 287 4 0.5564 -7.888136312360683 -12.21739441987236 -15.374933421075704 0 0 0
751 79 6 0.06 -14.559229085492202 -13.021570252052632 -9.200926820967545 0 0 0
890 95 10 0.06 -0.13289099953898464 -13.486189071628965 -13.138597032943329 0 0 0
576 60 10 0.06 -8.288283242914014 -14.687347908586819 -15.141383549575433 0 1 1
983 105 6 0.06 -6.005487822071679 -13.15214585120112 -0.2195058878402083 0 0 0
1849 203 4 0.5564 -11.181228007812615 -1.4227987068206698 -10.662212421350805 0 0 0
149 13 7 0.418 -6.677800156526223 -10.028447674170291 -7.987486727277865 0 0 0
2129 297 3 -1.1128 -6.784295988138959 -11.868407037520127 -8.111188862911813 0 0 0
894 95 6 0.06 -1.7498325937798747 -14.507188847653904 -15.547531819302058 0 0 0
198 18 10 0.06 -1.0075000087908297 -14.053478476253566 -8.660503129098696 0 0 0
2130 297 4 0.5564 -6.244251738378686 -12.427303901252962 -8.670003401112552 0 0 0
196 18 8 0.145 -1.833610566841564 -14.818291800510925 -8.854014288187603 0 0 0
195 18 9 -0.6830000000000001 -2.9749549436474414 -14.11340480418757 -8.35988766596768 0 0 0
389 39 6 0.06 -2.186233328559311 -9.277471182699447 -11.1776146326552 0 0 0
1119 120 6 0.06 -15.673899054452827 -4.082063921233255 -10.283529241827221 1 0 0
384 39 9 -0.6830000000000001 -0.9619805386560447 -9.058095518306423 -13.356045321299359 0 0 0
2177 313 3 -1.1128 -5.639613214195517 -0.24725717920018475 -15.169478898315024 0 0 1
80 5 10 0.06 -8.903948677136206 -5.775828090230672 -15.736326960679616 0 0 1
2156 306 3 -1.1128 -11.41223114674527 -1.6402565242920115 -14.544650312900929 0 0 0
1868 210 3 -1.1128 -7.9550637816343395 -15.405076260064272 -9.211100661480526 0 0 0
2220 327 4 0.5564 -9.611317131453 -7.614559242772078 -12.600199975057858 0 0 0
605 63 6 0.06 -9.767412083303942 -14.73839310608971 -5.697671861946407 0 1 0
1914 225 4 0.5564 -11.216584059166323 -7.317467976406778 -8.842114428015554 0 0 0
1841 201 3 -1.1128 -10.504720623478793 -7.064942819854309 -11.188073552009328 0 0 0
1842 201 4 0.5564 -11.34487354795693 -6.8513241100716815 -11.594025860589113 0 0 0
2802 521 4 0.5564 -13.784959297177869 -5.582989929770344 -12.476632252391639 0 0 0
1843 201 4 0.5564 -10.128708705641923 -6.2163932929098085 -10.953838820888414 0 0 0
2803 521 4 0.5564 -12.324487199966061 -5.523994290853889 -12.871061371788183 0 0 0
1871 211 3 -1.1128 -12.94481253214238 -4.88746215021607 -9.083372192344935 0 0 0
1872 211 4 0.5564 -12.827503601181107 -4.965634026378062 -10.030164080362436 0 0 0
2692 484 4 0.5564 -11.15497916969078 -4.077130182349803 -14.157154893756061 0 0 0
2691 484 4 0.5564 -11.501188711148679 -5.309045026450617 -14.966202653982151 0 0 0
2690 484 3 -1.1128 -11.270231655781624 -5.02441357554051 -14.08193407001956 0 0 0
2801 521 3 -1.1128 -12.906722591702373 -5.798065251393501 -12.162418813972401 0 0 0
1941 234 4 0.5564 -10.507593884798053 -4.053535244535723 -9.442188775348727 0 0 0
1942 234 4 0.5564 -10.54995430704009 -3.981293664011755 -10.953817127469854 0 0 0
2187 316 4 0.5564 -11.056247831793698 -2.1055093484963443 -12.841372640038049 0 0 0
1940 234 3 -1.1128 -10.157432723049972 -4.469476051907712 -10.230013350729648 0 0 0
1983 248 4 0.5564 -9.476692829765069 -1.2063499611289572 -7.846809938324579 0 0 0
2186 316 3 -1.1128 -10.80764984558862 -2.7305153590637357 -12.160304550281921 0 0 0
2188 316 4 0.5564 -9.918271573573712 -2.997535115788857 -12.392670587546782 0 0 0
2630 464 3 -1.1128 -10.54695983583313 -2.5809851998991835 -7.496149498623522 0 0 0
1873 211 4 0.5564 -13.881445125307932 -5.028519779027636 -8.945135895328665 0 0 0
2221 327 4 0.5564 -8.182054153800447 -7.688976729087393 -13.09386261656853 0 0 0
2122 294 4 0.5564 -8.51701879193805 -4.547442875962654 -9.918805281292308 0 0 0
675 71 10 0.06 -13.693812154666322 -2.915442767046752 -12.982595545059958 1 0 0
1982 248 3 -1.1128 -8.898075647764202 -0.5578199198513261 -8.247931015564689 0 0 0
1145 123 6 0.06 -0.39100098156835195 -1.5769102676323818 -6.305150213607643 0 0 0
674 71 10 0.06 -13.807457952286564 -1.268093593161428 -13.827315294397424 1 0 0
743 79 7 0.418 -14.6725124156481 -14.769666352466098 -11.953530628960257 0 0 0
2158 306 4 0.5564 -10.707066864929324 -1.7532999179083752 -15.182029058649544 0 0 0
606 63 6 0.06 -10.168042816985807 -15.724001175238879 -4.102972797542581 0 1 0
1854 205 4 0.5564 -10.696581316010018 -1.6430399149901884 -0.9948262519735724 0 0 0
2454 405 4 0.5564 -15.156980898142127 -5.654839583965808 -14.739893647067838 0 0 1
1848 203 4 0.5564 -10.219086290031985 -0.9136333552505249 -9.6100397119252 0 0 0
1869 210 4 0.5564 -7.749758743338003 -15.45765575405279 -8.277627389046394 0 0 0
2157 306 4 0.5564 -12.06704907196669 -1.1128713048498131 -15.002214982271198 0 0 0
673 71 8 0.145 -14.30399083807831 -1.996162381271116 -13.145787167515325 1 0 0
1147 123 6 0.06 -1.6354046622636051 -1.1854966226332095 -5.2149146087653 0 0 0
2028 263 4 0.5564 -3.9592187164324706 -3.5720602249361626 -15.649045943261955 0 0 1
574 60 8 0.145 -8.084371070470382 -15.760354935575569 -15.22270198414859 0 1 1
1113 120 9 -0.6830000000000001 -15.715822349408908 -4.856648969882933 -7.887496197263834 1 0 0
388 39 5 -0.18 -1.1061999729701775 -9.58416528342704 -11.058092633867096 0 0 0
391 39 6 0.06 -0.9996406733126992 -10.638243035149621 -11.11109588068793 0 0 0
604 63 5 -0.18 -9.981254558100748 -15.724284784460846 -5.209996675663676 0 1 0
2114 292 3 -1.1128 -11.17728790022311 -12.236659351622116 -15.692113297265307 0 0 0
341 34 10 0.06 -2.167216764162676 -9.678037449543691 -0.687576217270804 0 0 0
156 13 6 0.06 -7.353823459000713 -8.33945204212348 -10.972998282906739 0 0 0
155 13 6 0.06 -5.603620136456794 -8.628511872961667 -10.407614238431616 0 0 0
1158 125 9 -0.6830000000000001 -15.377211860271125 -13.074048105870334 -6.5323305496881385 1 0 0
1909 223 4 0.5564 -8.751070035097717 -2.932077696440171 -14.559261282360863 0 0 0
1907 223 3 -1.1128 -8.61781413461104 -3.0711066237511613 -13.621604116479876 0 0 0
288 28 10 0.06 -5.907786848878285 -4.2062078576954836 -0.8029845468374184 0 0 0
1908 223 4 0.5564 -8.233717191029678 -3.945788872089153 -13.56087796890571 0 0 0
2825 529 3 -1.1128 -2.7535572427646464 -6.743083488155801 -15.101005168951733 0 0 0
2563 441 4 0.5564 -1.5785811077946565 -1.3972637111476516 -13.279583059870784 0 0 0
2059 273 4 0.5564 -5.514238540227357 -7.570310662097377 -13.607150874121448 0 0 0
2491 417 4 0.5564 -0.8198392307106506 -3.025949044520136 -9.13744132195433 0 0 0
1910 224 3 -1.1128 -4.246591378900446 -0.8053105009151711 -9.122354608887141 0 0 0
2827 529 4 0.5564 -2.2806838088991963 -6.2331007655521145 -14.443285208353888 0 0 0
2371 377 4 0.5564 -7.687258213264647 -1.7370655610030585 -13.037423603538736 0 0 0
2369 377 3 -1.1128 -7.136605497036413 -0.9957496554129808 -12.785392810752011 0 0 0
1083 116 6 0.06 -4.079781829461529 -6.572083865976499 -8.180164023909448 0 0 0
1900 220 4 0.5564 -1.3742759545775787 -1.4217956731771988 -10.4560886559618 0 0 0
2035 265 4 0.5564 -1.8038900076541857 -5.288889298817709 -12.307832248292122 0 0 0
1079 116 10 0.06 -2.495748210694096 -7.556447224477191 -9.762507157693037 0 0 0
2120 294 3 -1.1128 -7.560548727666266 -4.58507018419197 -9.924844035290718 0 0 0
22 0 2 -1 -6.990426643611935 -5.647293786717528 -12.654938848090483 0 0 0
1081 116 5 -0.18 -3.5458629780728526 -5.910383457956378 -8.845183769359892 0 0 0
1911 224 4 0.5564 -4.359462364143198 -1.2186593564530703 -8.266381472564959 0 0 0
1078 116 8 0.145 -3.084176498063494 -6.71459306252385 -10.048162028354767 0 0 0
1082 116 6 0.06 -2.6631669227455994 -5.56566729206741 -8.33295525462174 0 0 0
1080 116 10 0.06 -3.881862049967335 -6.872564177997441 -10.791596960826215 0 0 0
2033 265 3 -1.1128 -1.4490024587070245 -5.269090223629311 -13.196623558221074 0 0 0
1077 116 9 -0.6830000000000001 -2.129027977307816 -5.878544485062928 -10.729430189231028 0 0 0
2121 294 4 0.5564 -7.3362343362276405 -4.845089047902128 -10.818354250658142 0 0 0
1972 244 4 0.5564 -5.546262216211526 -3.8987474284491626 -11.966512389506748 0 0 0
1971 244 4 0.5564 -4.33759533610862 -3.6527294288450562 -11.088655313854604 0 0 0
1970 244 3 -1.1128 -4.993277599186985 -3.199210590071356 -11.618455819029819 0 0 0
1918 226 4 0.5564 -7.714378277555452 -1.8347798053442013 -8.825560624350777 0 0 0
1917 226 4 0.5564 -6.874894446676908 -2.975491724515928 -9.36042191948111 0 0 0
1916 226 3 -1.1128 -6.87714616895072 -2.0247824372648306 -9.248914488384465 0 0 0
1 0 1 1 -5.55893977794832 -1.0631771953668867 -11.035446426578265 0 0 0
1898 220 3 -1.1128 -1.9720483936988042 -2.1393686206930305 -10.246221303823393 0 0 0
2685 482 4 0.5564 -5.605018672185439 -5.154983213146664 -14.349882038903115 0 0 1
1076 116 7 0.418 -1.5754522326678035 -5.535881249293839 -10.024092221625128 0 0 0
1899 220 4 0.5564 -2.7604697013362944 -1.7068027277536757 -9.918249140661665 0 0 0
1878 213 4 0.5564 -6.926022524001052 -4.6308020320756995 -8.12685108435178 0 0 0
2034 265 4 0.5564 -1.4408490778234437 -4.3410768007603195 -13.431169377641304 0 0 0
1084 116 6 0.06 -4.184683603095287 -5.06872069973698 -9.19008673622239 0 0 0
2370 377 4 0.5564 -6.7094152440232815 -0.7266825675538175 -13.598656930992501 0 0 0
1952 238 3 -1.1128 -15.383670286904504 -5.0738796243056346 -13.040658075640899 1 0 0
892 95 5 -0.18 -1.6748891563014574 -14.170810894431797 -14.511829761713685 0 0 0
2429 397 3 -1.1128 -1.0970982463493968 -10.935918148933418 -15.2292701935997 0 0 1
2562 441 4 0.5564 -1.499285608084092 -0.16264943386073938 -12.406958674451593 0 0 0
2561 441 3 -1.1128 -2.0674635757629574 -0.6122567900020517 -13.032509766565589 0 0 0
2684 482 3 -1.1128 -5.131434475044761 -5.255621235684739 -15.175640528161141 0 0 1
981 105 10 0.06 -3.70763465104927 -12.45277615549884 -0.174646455041513 0 0 0
393 40 9 -0.6830000000000001 -9.205112999060905 -13.186081936768105 -7.9487599392311115 0 0 0
1165 125 6 0.06 -13.323966065843766 -12.012256728843868 -5.159387554529189 1 0 0
1144 123 5 -0.18 -0.9619036876753189 -0.8050245275553678 -5.9459251446342805 0 0 0
889 95 8 0.145 -0.20695891571650726 -14.06299628059117 -14.085194117431955 0 0 0
374 38 7 0.418 -12.815839812007061 -9.462598397858807 -1.5453841230539282 0 0 0
2809 523 4 0.5564 -1.0692634190160053 -3.032462978038799 -15.16376566591691 0 0 0
2807 523 3 -1.1128 -0.7221911177186264 -2.8142179788975703 -14.298781792761874 0 0 0
1855 205 4 0.5564 -11.213995961222782 -3.0359822496197335 -0.7049517009509145 0 0 0
2541 434 4 0.5564 -15.299550562625873 -10.354856429628697 -5.066981381440021 1 0 0
392 40 7 0.418 -8.451372772578214 -12.588591624166892 -8.137749924165515 0 0 0
1137 122 6 0.06 -1.8884554411334769 -6.04977412600836 -4.784020218011516 0 0 0
1026 110 10 0.06 -15.443317542145852 -10.404942741602518 -8.299050483165596 0 0 0
672 71 9 -0.6830000000000001 -15.561108499139717 -2.3102591345864685 -13.678164361310124 1 0 0
219 20 6 0.06 -7.724467552915451 -9.05342136600932 -2.752959386657441 0 0 0
1164 125 6 0.06 -14.435035014763464 -12.744500246840927 -4.186611648797712 1 0 0
1162 125 5 -0.18 -13.643038180873557 -12.980818046535077 -4.904786753277918 1 0 0
1024 110 8 0.145 -14.580277871464656 -9.895121939738182 -7.929821910499482 0 0 0
1023 110 9 -0.6830000000000001 -14.52763856440662 -10.094277760398308 -6.523569333810812 0 0 0
398 40 6 0.06 -8.912009736072605 -10.827872994831507 -6.757540202272791 0 0 0
377 38 10 0.06 -10.963653164937178 -11.456172478271665 -1.0117713711935945 0 0 0
1159 125 8 0.145 -14.210567764016972 -13.715227486670727 -6.0635294866135965 1 0 0
1022 110 7 0.418 -13.720250652370552 -9.599457766169184 -6.296926192778841 0 0 0
379 38 5 -0.18 -11.495914266549896 -10.552026431559078 -2.90731363179259 0 0 0
376 38 8 0.145 -11.344411861861794 -10.471699658630623 -1.3610316796412558 0 0 0
382 38 6 0.06 -10.730274382673693 -11.153684245853121 -3.3385527626026317 0 0 0
381 38 6 0.06 -12.4257435935077 -11.038235891820076 -3.2076516032240097 0 0 0
400 40 6 0.06 -10.49885142799782 -10.598111807561368 -6.065498016531057 0 0 0
395 40 10 0.06 -11.135277642759029 -12.801795961227688 -7.123596991052395 0 0 0
394 40 8 0.145 -10.286549820404693 -12.26839021897004 -7.579880514726618 0 0 0
397 40 5 -0.18 -9.823090737222259 -11.369376638630996 -6.4146228058303265 0 0 0
399 40 6 0.06 -9.57008206536894 -11.971728575898796 -5.546439770558765 0 0 0
378 38 10 0.06 -10.782125596831401 -9.58673912461724 -1.1949223195460785 0 0 0
380 38 6 0.06 -11.485181962962223 -9.539553728481 -3.312043686500367 0 0 0
217 20 5 -0.18 -7.598389582517287 -8.439758746654222 -1.832452316474395 0 0 0
375 38 9 -0.6830000000000001 -12.510042594270146 -10.043502943128932 -0.8433875528643835 0 0 0
130 10 6 0.06 -8.175412390542364 -13.318488627987469 -3.2771324659235095 0 0 0
887 95 7 0.418 -0.07008596175472981 -12.539831481791687 -15.303842158201064 0 0 0
893 95 6 0.06 -2.229333233416762 -14.95786670421075 -13.95014939212902 0 0 0
1163 125 6 0.06 -12.90640740502173 -13.495467855015736 -4.27395292674105 1 0 0
1025 110 10 0.06 -14.609720014738459 -8.84134085899051 -8.096226987535077 0 0 0
1967 243 3 -1.1128 -12.399267901274557 -7.8866923693018345 -5.863374776474192 0 0 0
1969 243 4 0.5564 -11.727309779259386 -7.802550464111725 -5.186854578418943 0 0 0
1965 242 4 0.5564 -8.920957952907703 -8.534007064505094 -4.783004263807525 0 0 0
1968 243 4 0.5564 -11.984287905120413 -7.549009211264503 -6.657130946676295 0 0 0
2431 397 4 0.5564 -0.8115636580707051 -10.420747325769598 -14.474713247988625 0 0 1
2826 529 4 0.5564 -3.383593328732685 -6.1270557681407745 -15.474972458549548 0 0 0
976 104 6 0.06 -1.8191357834351187 -9.636968046556309 -5.896335443600144 0 0 0
971 104 10 0.06 -3.4957092136343757 -10.87785749822009 -7.413775038192071 0 0 0
383 39 7 0.418 -1.7911661970839283 -8.571582267335295 -13.341837592449668 0 0 0
1870 210 4 0.5564 -8.779103850905637 -14.919444708132152 -9.248611950252194 0 0 0
342 34 10 0.06 -2.245641836541793 -10.966314415636102 -2.0583974819768525 0 0 0
193 17 6 0.06 -4.207324630158265 -7.784836724281649 -5.848773589525138 0 0 0
2131 297 4 0.5564 -6.556883647688718 -12.129814317424508 -7.218867711707821 0 0 0
125 10 10 0.06 -6.821622515902842 -11.532406711926967 -4.1258888611099955 0 0 0
2064 275 4 0.5564 -6.732093580019569 -1.1102144598267145 -0.28642901457438086 0 0 0
968 104 7 0.418 -2.4267662101036613 -12.864568614096287 -7.016941345088288 0 0 0
386 39 10 0.06 -0.20659806574013118 -7.743150785699518 -12.098683526137712 0 0 0
972 104 10 0.06 -2.1232215599783153 -11.228222466995863 -8.365509771545641 0 0 0
974 104 6 0.06 -1.837422408533703 -8.990231345593434 -7.52559066069696 0 0 0
975 104 6 0.06 -0.5061233166916708 -10.138653349010315 -6.985708796064575 0 0 0
2071 277 4 0.5564 -15.724912767490087 -14.041774466279826 -15.397064230710475 0 0 1
973 104 5 -0.18 -1.5941294145988625 -9.902118210719692 -6.882286595337879 0 0 0
62 3 10 0.06 -2.873401551660697 -14.449337860204826 -3.0040573290129835 0 1 0
215 20 10 0.06 -7.347609699565149 -6.375474701550736 -1.1217704767884893 0 0 0
128 10 6 0.06 -6.7735858783072 -13.262063211476567 -2.2994803712748464 0 0 0
123 10 9 -0.6830000000000001 -6.465327322380981 -12.82272365165445 -5.589194241565622 0 0 0
122 10 7 0.418 -6.449566853505775 -13.74418955242586 -5.684301814754971 0 0 0
129 10 6 0.06 -6.86652135788129 -14.491080434305312 -3.5652265982614804 0 0 0
61 3 8 0.145 -3.2540773324867303 -14.768662370629578 -3.924033102271565 0 1 0
124 10 8 0.145 -6.415497868315372 -12.497975010050745 -4.273883429912033 0 0 0
127 10 5 -0.18 -7.112815884084583 -13.474861413636624 -3.312782707428905 0 0 0
126 10 10 0.06 -5.354009738539798 -12.488578948357627 -3.9325675456063696 0 0 0
63 3 10 0.06 -3.907820910184231 -14.034936483796972 -4.427053823504272 0 1 0
340 34 8 0.145 -1.6523173556256232 -10.183787871167478 -1.5242371713750735 0 0 0
970 104 8 0.145 -2.4602112306472588 -11.012656485511686 -7.385435803443459 0 0 0
150 13 9 -0.6830000000000001 -6.43128365162921 -9.117021235439463 -7.856618189765285 0 0 0
2215 325 4 0.5564 -5.115628489330739 -14.579336808228273 -7.1474382756724655 0 1 0
980 105 10 0.06 -3.6212656711256006 -14.297653745405036 -0.3006169800363345 0 0 0
186 17 9 -0.6830000000000001 -6.436939626239855 -9.13691941445763 -5.012391842292846 0 0 0
185 17 7 0.418 -6.395446292754171 -8.973504764103001 -5.970902526336641 0 0 0
2213 325 3 -1.1128 -5.8592749997208475 -15.173502707212066 -7.046226209752209 0 1 0
969 104 9 -0.6830000000000001 -2.100402355095339 -12.084261761530717 -6.605083506202234 0 0 0
346 34 6 0.06 -2.401776087691932 -8.632694782196692 -2.6333699862355147 0 0 0
678 71 6 0.06 -14.661500786871175 -1.715172320224223 -10.956803701563206 1 0 0
343 34 5 -0.18 -1.4111562337979997 -9.006715869803806 -2.5501154850296555 0 0 0
238 22 6 0.06 -13.67285421200069 -5.760945647793498 -0.8279594318397638 0 0 0
66 3 6 0.06 -1.491563115014701 -14.428528803676054 -5.256072944520859 0 1 0
750 79 6 0.06 -15.62008081615095 -13.179588734889716 -10.522047257096013 0 0 0
1915 225 4 0.5564 -11.825802240096259 -5.994855737447169 -8.427887930511018 0 0 0
1913 225 3 -1.1128 -11.228547998741135 -6.680154821375099 -8.127988409364267 0 0 0
344 34 6 0.06 -1.0133807563549269 -9.533524250325172 -3.418029099192923 0 0 0
191 17 6 0.06 -3.5809617795231894 -7.855959188358254 -4.083718232992066 0 0 0
1517 165 7 0.418 -14.592515491670719 -0.7934717381449303 -0.7961152969533032 1 0 0
236 22 6 0.06 -12.675213313600372 -6.321512572017598 -2.059061579556044 0 0 0
2632 464 4 0.5564 -10.298193287759018 -2.947506422269221 -6.647583324319889 0 0 0
2631 464 4 0.5564 -11.472064672323436 -2.3554146533027183 -7.398240886264727 0 0 0
2559 440 4 0.5564 -13.83242382271512 -2.6218572633448414 -6.826574413411212 0 0 0
2558 440 3 -1.1128 -13.283776158012726 -1.8417123224124161 -6.908101907089719 0 0 0
237 22 6 0.06 -13.062112621078018 -4.573670276456047 -1.9683806595830742 0 0 0
1963 241 4 0.5564 -15.57830416750635 -7.313276235591955 -3.8399630123061446 1 0 0
235 22 5 -0.18 -12.857142738110499 -5.480562901106065 -1.4256126628363734 0 0 0
1948 236 4 0.5564 -8.295141819543812 -5.666184510940285 -6.933319870346516 0 0 0
1964 242 3 -1.1128 -9.649699070824006 -7.9135326494091025 -4.798334515549611 0 0 0
1876 212 4 0.5564 -13.798326435729331 -6.569162044584697 -5.217050507788246 0 0 0
1874 212 3 -1.1128 -14.492621618554582 -6.1454983811850585 -4.7123224104780395 0 0 0
1932 231 4 0.5564 -14.836936436786834 -3.348585195290834 -3.8927880365426955 0 0 0
2560 440 4 0.5564 -13.82724435157669 -1.2149508131871851 -7.385699504123082 0 0 0
1518 165 9 -0.6830000000000001 -15.269241476343726 -1.3605279888322421 -0.4685194479890953 1 0 0
1853 205 3 -1.1128 -10.638477249607066 -2.5499388569873354 -1.2955676377447016 0 0 0
212 20 7 0.418 -9.196313232298046 -7.062167098756467 -3.2744198347539673 0 0 0
1875 212 4 0.5564 -14.259353116878854 -5.217132822546306 -4.715547806816362 0 0 0
1947 236 4 0.5564 -9.702965086409446 -6.1280418320613865 -7.2443745719941965 0 0 0
1974 245 4 0.5564 -9.152408856195038 -3.5167126959076764 -2.09338506777717 0 0 0
1973 245 3 -1.1128 -8.340835934565447 -3.9537977214912736 -2.3514417165534187 0 0 0
2475 412 4 0.5564 -12.499475116924724 -1.0155222863293911 -4.131074713202878 0 0 0
2474 412 3 -1.1128 -12.380079847310345 -0.1800149581611432 -4.582693309378982 0 0 0
2476 412 4 0.5564 -12.67219720940353 -0.3476416371477349 -5.4787155654961595 0 0 0
1966 242 4 0.5564 -9.378632730059433 -7.240341889908864 -5.422533586523452 0 0 0
1976 246 3 -1.1128 -9.335265441936503 -3.5589528421109513 -5.170232840645042 0 0 0
1881 214 4 0.5564 -10.882598448449409 -3.206257448845058 -4.344644577446717 0 0 0
1977 246 4 0.5564 -9.342709640983662 -4.453428860530902 -5.511032495874025 0 0 0
1880 214 3 -1.1128 -11.68221657201605 -2.9410759916667786 -3.8901373690822982 0 0 0
1933 231 4 0.5564 -13.347687735807849 -3.279657329530661 -4.156266348794812 0 0 0
1931 231 3 -1.1128 -14.180395411360063 -3.503492227416146 -4.571938137564905 0 0 0
1882 214 4 0.5564 -11.47080890127201 -3.030126551017503 -2.960802161327562 0 0 0
1978 246 4 0.5564 -8.528415233109431 -3.503951989337313 -4.65812467491407 0 0 0
1946 236 3 -1.1128 -9.094231957158886 -5.991160072175246 -6.518430712439763 0 0 0
1975 245 4 0.5564 -8.551091981181944 -4.88718498068619 -2.321983560987725 0 0 0
1136 122 6 0.06 -0.32120705597591126 -6.802790728551249 -5.225007793055621 0 0 0
1406 152 6 0.06 -3.700120454577471 -0.33358478157218485 -2.9022564812274876 0 0 0
1408 152 6 0.06 -3.9301883548024286 -0.2221080747880606 -1.2736352111750993 0 0 0
171 15 10 0.06 -3.945347251180932 -4.6733024767608615 -6.336056789567353 0 0 0
168 15 9 -0.6830000000000001 -4.723189473395097 -2.8711073366073876 -6.708810419120393 0 0 0
170 15 10 0.06 -2.8901453663450685 -3.3357500921867427 -5.989610340312881 0 0 0
895 95 6 0.06 -2.1500330902149525 -13.246660678380303 -14.59605710727737 0 0 0
1912 224 4 0.5564 -3.6578153579713337 -0.06880875663243735 -8.957444837932954 0 0 0
152 13 10 0.06 -6.732631555707529 -7.316518721593267 -8.591920668810314 0 0 0
287 28 10 0.06 -4.749118078095902 -2.991967390843019 -1.5032564500529713 0 0 0
1400 152 7 0.418 -1.0772132783467026 -0.42901389774620746 -0.7292140501535016 0 0 0
1405 152 5 -0.18 -3.113354233133416 -0.2985227290758736 -1.999078293755451 0 0 0
214 20 8 0.145 -7.592709139239563 -6.984733616121019 -2.040449705317563 0 0 0
1115 120 10 0.06 -15.124039573319246 -2.9297058111577474 -8.24283586580159 1 0 0
192 17 6 0.06 -4.975998130686445 -7.062092398127646 -4.4529787181726235 0 0 0
197 18 10 0.06 -1.6828759526137027 -15.71980254924832 -8.305749451318686 0 0 0
1922 228 3 -1.1128 -7.022076919291434 -1.584972322224763 -2.08141371908723 0 0 0
172 15 5 -0.18 -4.283808952054285 -3.7870367803921763 -4.387691463910864 0 0 0
1402 152 8 0.145 -2.0805697023722036 -1.435816139737769 -1.9473678471524654 0 0 0
216 20 10 0.06 -6.914796411998866 -6.601877058685421 -2.7696861984839654 0 0 0
174 15 6 0.06 -4.662443283702071 -2.964552687564133 -3.7925367934066703 0 0 0
1132 122 8 0.145 -0.33235867752177484 -4.5426295097077976 -5.100209860778099 0 0 0
1924 228 4 0.5564 -7.536026421235915 -0.9784904415169908 -2.614632961588624 0 0 0
1923 228 4 0.5564 -7.53576975947888 -2.3926563200240167 -2.074107016176656 0 0 0
213 20 9 -0.6830000000000001 -8.909300359203773 -6.595760733655865 -2.498745975024013 0 0 0
289 28 5 -0.18 -3.8079726101916833 -4.8999653228841495 -0.921558931257632 0 0 0
290 28 6 0.06 -3.794679781187982 -5.3502266587444005 -1.8902217524142948 0 0 0
292 28 6 0.06 -2.775029609081887 -4.6428026100922 -0.7119847264006207 0 0 0
1134 122 10 0.06 -0.5753549454224274 -4.220225764651369 -6.111303449420477 0 0 0
1877 213 3 -1.1128 -6.833721572849727 -4.71138548680425 -7.177496599516386 0 0 0
173 15 6 0.06 -5.144554805865406 -4.461261309713079 -4.315922165327516 0 0 0
190 17 5 -0.18 -4.415484153944096 -7.951061760064334 -4.771440046554519 0 0 0
187 17 8 0.145 -5.133035432118097 -9.241539237305261 -4.4514737276699865 0 0 0
167 15 7 0.418 -5.009137625885694 -2.0617094509915592 -6.261530681396476 0 0 0
220 20 6 0.06 -8.414945814944188 -8.722303071879626 -1.2912724076916646 0 0 0
188 17 10 0.06 -4.567170060134451 -10.073819102453747 -4.838524839852358 0 0 0
189 17 10 0.06 -5.135940649650085 -9.336157581188038 -3.35276870203999 0 0 0
345 34 6 0.06 -0.802178215223547 -8.22502865573046 -2.1973497541473 0 0 0
1131 122 9 -0.6830000000000001 -0.8324420823800818 -3.6589487625811863 -4.123013797030211 0 0 0
1404 152 10 0.06 -1.2799711326275016 -1.3644204624771223 -2.656067712474382 0 0 0