LAMMPS data file via write_data, version 22 Dec 2022, timestep = 5000

5838 atoms
12 atom types
5111 bonds
11 bond types
7690 angles
15 angle types
5262 dihedrals
17 dihedral types

-19.608387405865646 19.608387405865646 xlo xhi
-19.608387405865646 19.608387405865646 ylo yhi
-19.608387405865646 19.608387405865646 zlo zhi

Masses

1 12.011
2 15.9994
3 1.008
4 15.9994
5 1.008
6 12.011
7 1.008
8 1.008
9 12.011
10 15.9994
11 1.008
12 15.9994

Pair Coeffs # lj/cut/coul/long

1 0.056 3.58141
2 0.1 2.93997
3 0.035 2.38761
4 0.192 3.14487
5 0.046 0.40001
6 0.0663016 3.58118
7 0.0282937 2.37341
8 0 0
9 0.245018 2.81144
10 0.119497 3.1
11 0 0
12 0.119432 3.40025

Bond Coeffs # harmonic

1 222.35 1.53
2 308.79 1.1111
3 359.76 1.1415
4 427.715 1.142
5 544.635 0.96
6 349.274 1.09
7 399.792 1.43
8 299.844 1.52
9 349.928 1.1
10 442.161 0.972
11 442.161 0.972

Atoms # full

2488 27 2 -0.34 -15.720006387876975 -14.905591808237721 -15.808015453331452 1 1 1
2489 27 1 -0.01 -14.671630659387784 -15.454337564869691 -15.528125444264724 1 1 1
2485 27 1 -0.01 -16.55285384395728 -15.622728625975881 -16.22449165416704 1 1 1
2482 27 1 -0.01 -17.93616279959495 -14.980924321581414 -16.395163523226586 1 1 1
2481 27 2 -0.34 -18.141766612324073 -14.500044455040788 -17.53200836077876 1 1 1
2490 27 3 0.09 -14.067381467010883 -15.42358122457511 -16.514913128462698 1 1 1
2486 27 3 0.09 -16.185430802556528 -15.931202298939935 -17.25637729312054 1 1 1
2494 27 3 0.09 -13.922521640926346 -13.558146499162586 -14.828038656876092 1 1 1
2492 27 1 -0.01 -13.68139457972624 -14.60522474781777 -14.704798900281624 1 1 1
2495 27 2 -0.34 -13.735605547039327 -14.926799374275245 -13.52869963216997 1 1 1
2493 27 3 0.09 -12.711037746814691 -14.85770466042891 -15.202948953545567 1 1 1
2496 27 1 -0.01 -12.922358013552703 -14.349425643945523 -12.848128543166826 1 1 1
2497 27 3 0.09 -12.298487839052525 -15.281223250635977 -12.694289976334622 1 1 1
2498 27 3 0.09 -12.253496277738687 -13.466209613874035 -13.127384347562273 1 1 1
4601 315 12 -0.826 -13.881303996786826 -15.050388974679505 -19.162373651239683 1 0 0
4602 315 11 0.413 -14.236059406536974 -14.276105861972278 -18.603096100197586 1 0 0
5794 713 11 0.413 -14.52046870340479 -10.438917792133577 -17.188443543261112 0 0 1
5795 713 12 -0.826 -15.1499208150457 -10.842918627151288 -16.53405153110158 0 0 1
5796 713 11 0.413 -15.489283721917682 -11.594760440215156 -17.006691746473322 0 0 1
2501 27 3 0.09 -13.609021372862221 -12.868291195895628 -11.277535757357736 1 1 1
2499 27 1 -0.01 -13.497733296846866 -14.034421484422266 -11.407730719102949 1 1 1
2502 27 2 -0.34 -13.120825757783106 -14.77047411167746 -10.56897477006831 1 1 1
5270 538 12 -0.826 -15.94574472337677 -12.879336979362659 -18.847016788611445 0 1 0
5271 538 11 0.413 -16.51567032218341 -13.668291495965475 -18.422569029123597 0 1 0
5269 538 11 0.413 -16.549266248571747 -12.290074445743084 -19.37808172042952 0 1 0
2292 25 3 0.09 4.252522113411186 -18.78126851571321 -19.549594045381436 0 1 1
3620 148 10 -0.6820000000000001 -17.26806713840722 -10.079514381369512 -15.063554195816742 1 0 0
3619 148 8 0.416 -16.42567452964308 -10.330981021974553 -15.538061047230011 1 0 0
2487 27 3 0.09 -16.791669880463665 -16.537585619494948 -15.568862579815372 1 1 1
2491 27 3 0.09 -14.611808162881097 -16.55388587108546 -15.112438908036124 1 1 1
5750 698 12 -0.826 -12.875384219522925 -9.520980351318634 -18.096368948033064 1 1 1
4347 230 11 0.413 -14.763619984632076 -11.72117727783603 -14.383709113773909 0 0 0
4345 230 11 0.413 -15.8484120373127 -11.156056994016721 -13.489854732729091 0 0 0
4346 230 12 -0.826 -14.877725467707721 -11.254479278091605 -13.519126120395645 0 0 0
1063 12 3 0.09 -13.100469366062113 -17.957668979646307 -13.329756354191924 1 1 1
4947 430 11 0.413 -15.76878417490589 -16.419622698797635 -10.858405348595486 0 1 0
2742 50 6 -0.285 5.655535820482785 -19.350450215614654 -2.8243678010368294 0 0 0
3456 129 7 0.079 9.744778857816836 -0.4366078715897273 -10.51092919260728 -1 0 0
4945 430 11 0.413 -14.503397069026445 -16.336367673626732 -11.601544391301001 0 1 0
4946 430 12 -0.826 -15.114166037990657 -17.04574542946661 -11.255041809310276 0 1 0
2500 27 3 0.09 -14.601706237901631 -14.33019394832405 -11.634033330335516 1 1 1
5749 698 11 0.413 -12.330569688814252 -9.452791690015236 -18.91812481567959 1 1 1
2474 27 2 -0.34 -19.097629384567927 -12.904373572355706 -19.48533235102323 1 1 1
1545 17 1 -0.01 -18.30260274821598 -19.36186081126692 -19.111189335092725 1 1 1
3371 120 7 -0.029 -17.25905707514552 -18.973558205370384 -16.10852137361328 1 1 1
2503 27 1 -0.01 -13.097814487572363 -14.509649946102819 -9.476132507639784 1 1 1
2504 27 3 0.09 -13.132193611142984 -15.53156090116369 -8.96088856437237 1 1 1
764 9 3 0.09 -11.567365479247611 -14.138186062127934 -17.70815612284169 1 1 0
4085 199 7 0.079 -18.623927012276752 -17.126788331758377 -13.354531294207492 1 0 1
3508 135 7 0.079 -18.153176197146777 -16.1853745201306 -8.352125516937205 0 1 0
3507 135 6 -0.285 -17.96154357266804 -16.728252650976465 -9.265835826688805 0 1 0
3509 135 7 0.079 -17.26159911951811 -17.556279306461622 -9.103828590403607 0 1 0
5414 586 12 -0.826 -11.89472834977681 -0.10568859035249223 -18.4321372226219 1 -1 1
4468 271 11 0.413 -1.9100850436250787 -0.655216049427763 -0.9426494413068293 0 -1 1
3857 174 7 -0.029 -1.77735129209972 -12.632351700560196 -19.56812929029223 0 0 0
5719 688 11 0.413 -11.782210774733569 -19.368996204837376 -2.4887144131121772 1 0 -1
3141 94 7 0.079 -13.062666381520309 -18.516678389795533 -18.50818176348943 1 0 0
2484 27 3 0.09 -18.659007373259577 -15.858558046087879 -16.065006450128863 1 1 1
2478 27 1 -0.01 -19.24863635162751 -14.378250182365644 -17.911319710349446 1 1 1
2475 27 1 -0.01 -19.22539560114742 -14.030737004213677 -19.371869222439837 1 1 1
5100 481 11 0.413 -13.914778025059293 -10.331001880007355 -11.644411411070651 0 0 1
5514 619 11 0.413 16.419004608884062 -19.202001655023626 -8.887102335717385 -1 0 0
5345 563 12 -0.826 -6.0048952953910835 -19.11296372122269 -4.767442477357954 0 0 0
4684 343 11 0.413 -15.425301641645685 -18.863478598463274 -11.901384736966481 1 0 0
3433 127 7 -0.029 -8.133176888610539 -13.082149131692077 -19.268792370838693 0 0 0
2505 27 3 0.09 -13.880928637058698 -13.867073087581502 -8.975287035310235 1 1 1
3503 135 10 -0.6820000000000001 -16.358362137097693 -15.008686971453486 -9.936946821624984 0 1 0
3348 117 7 0.079 4.174297427716908 -19.06119196071417 -9.728035956733333 0 1 1
2427 26 3 0.09 9.647314584936439 -19.298355694033738 -16.275488926522318 0 1 1
2574 31 7 0.079 -1.340432838761812 -8.893834147781613 -1.165724522936659 0 0 0
5513 619 12 -0.826 17.310181427438547 -19.087472144866602 -8.492145987729057 -1 0 0
5077 474 11 0.413 -5.108536734174857 -5.1796749193616245 -2.187718907543286 0 -1 0
639 7 3 0.09 4.985595736312338 -18.00090331727759 -0.25740778694666816 0 1 0
4488 277 11 0.413 -12.82018471488287 -10.566671782713106 -0.23380093495706109 0 1 1
3260 108 10 -0.6820000000000001 -3.1900454152804913 -19.21973781440119 -13.900486861419743 0 0 0
1928 21 1 -0.01 15.417600711939484 -3.9587082434919556 -0.4112649946609174 0 0 0
4692 345 11 0.413 1.0633501377658712 -11.77483941662179 -18.47433886192726 0 0 1
1061 12 1 -0.01 -12.073400365454342 -18.008734692596047 -13.916394460417127 1 1 1
763 9 3 0.09 -9.82221423596166 -14.178410093255431 -18.51000299958374 1 1 0
759 9 3 0.09 -10.121854663327545 -16.562397234216895 -16.04287198696598 1 1 0
760 9 3 0.09 -9.817656532608645 -16.527266053155774 -17.799423205252772 1 1 0
758 9 1 -0.01 -9.733821232902349 -15.845715713735677 -16.819789101800495 1 1 0
762 9 1 -0.01 -10.445227555056793 -14.134003686201707 -17.572852157031782 1 1 0
761 9 2 -0.34 -10.501378743545038 -14.942009311000813 -16.711993144897253 1 1 0
1064 12 2 -0.34 -11.386562365736907 -18.116467248869448 -13.009236259784622 1 1 1
1067 12 3 0.09 -10.428221353163957 -16.413648484540175 -13.141933411196954 1 1 1
753 9 1 0.05 -8.335316618367674 -15.657654858878102 -16.319547789135548 1 1 0
1070 12 3 0.09 -10.394870511672579 -17.402133627342646 -10.809695800751165 1 1 1
1062 12 3 0.09 -12.114751098110165 -17.04585282819139 -14.563420374173432 1 1 1
756 9 4 -0.65 -8.227878182751079 -15.131607538795633 -15.32292545127819 1 1 0
757 9 5 0.42 -8.922206304436111 -14.462343898914721 -15.307315352361192 1 1 0
1065 12 1 -0.01 -10.37180184737115 -17.553235255848122 -12.996298290700055 1 1 1
778 9 3 0.09 -7.081602916332597 -12.484502803363565 -17.6841503604455 1 1 0
3291 111 6 -0.285 -5.399684500473492 -14.584929141555437 -12.731889551438176 0 1 1
3293 111 7 0.079 -6.470445155951263 -14.330076463359113 -12.414674990574127 0 1 1
3290 111 7 -0.029 -4.11863452359825 -14.210111311826706 -14.34502026845189 0 1 1
3288 111 9 0.372 -5.154387490551508 -14.370193614930548 -14.196878246504363 0 1 1
3289 111 7 -0.029 -5.625665919108545 -13.451421252114274 -14.4230675122805 0 1 1
3286 111 8 0.416 -6.613802759697777 -15.345891512071107 -15.076141683922225 0 1 1
3287 111 10 -0.6820000000000001 -5.600688754102537 -15.467429940065367 -14.989604039669578 0 1 1
781 9 3 0.09 -5.01520283164606 -12.86023145446077 -16.733513068016737 1 1 0
1066 12 3 0.09 -9.556049294764112 -17.95112392277119 -13.735638334164056 1 1 1
3294 111 7 0.079 -4.76938143372826 -14.017915537996352 -12.041532999881635 0 1 1
780 9 3 0.09 -5.243857783029224 -11.53137190689335 -15.673296048762897 1 1 0
779 9 1 -0.01 -5.198635839552287 -11.768019452789675 -16.79494809659008 1 1 0
1068 12 1 -0.01 -9.650419133412983 -17.6872580085154 -11.62625316669135 1 1 1
776 9 1 -0.01 -6.58504227644737 -11.5059829108481 -17.443115398401325 1 1 0
768 9 2 -0.34 -9.2977049422892 -12.56378466068242 -16.49986259820436 1 1 0
765 9 1 -0.01 -10.336590831760457 -12.698105025002388 -16.926466246172094 1 1 0
766 9 3 0.09 -10.474171329937892 -12.134165042258362 -17.93004840406109 1 1 0
773 9 3 0.09 -8.71126022042203 -10.64513482623836 -17.956687054255664 1 1 0
767 9 3 0.09 -11.306377154414356 -12.456570973891143 -16.294122660969734 1 1 0
772 9 1 -0.01 -8.253088803291117 -10.526912087017186 -16.87916870482084 1 1 0
775 9 2 -0.34 -7.079639394931717 -10.627829894702275 -16.859296342519084 1 1 0
3292 111 7 0.079 -5.236403361951112 -15.661696851472481 -12.474189036510166 0 1 1
770 9 3 0.09 -9.842055060409093 -10.921574420166099 -15.38989215472362 1 1 0
769 9 1 -0.01 -9.082455122223218 -11.556454312572633 -15.890214595639359 1 1 0
1069 12 3 0.09 -8.937033358409513 -16.78427030694455 -11.557499570472316 1 1 1
2933 71 7 0.079 -6.435552884709894 -17.962124942402067 -9.898887799034798 0 0 0
771 9 3 0.09 -8.424314114907025 -11.843892618398785 -15.020179520807206 1 1 0
5098 481 11 0.413 -12.440198282693524 -10.031051845692804 -11.137137986348769 0 0 1
2506 27 1 -0.01 -11.655740460774643 -13.989203447790075 -9.054022318158141 1 1 1
2507 27 3 0.09 -11.01068498871174 -14.842569059181839 -9.629199952306653 1 1 1
4517 287 12 -0.826 -10.329425906349282 -9.824230804058585 -11.074995570373844 0 0 0
4518 287 11 0.413 -9.622621938580084 -10.468172392546759 -10.988767855941909 0 0 0
4516 287 11 0.413 -10.488205373874287 -9.51301386647561 -10.15037783812553 0 0 0
4556 300 12 -0.826 -6.67447593448737 -11.049465252521358 -11.78722294121517 0 0 1
5361 568 11 0.413 -4.279436774677276 -18.073479123244613 -15.613673442115202 0 1 0
777 9 3 0.09 -6.4567432808613265 -11.206621413965207 -18.546764893798827 1 1 0
782 9 2 -0.34 -4.453290376761898 -10.952760292034249 -17.120336576584332 1 1 0
785 9 3 0.09 -3.8918047101774356 -11.885179272289278 -18.718290203394762 1 1 0
2931 71 6 -0.285 -6.501528985417472 -17.491754599539135 -8.976060764520739 0 0 0
2508 27 3 0.09 -11.4334877705454 -13.058863972981934 -9.667879935469076 1 1 1
4555 300 11 0.413 -6.594464531985532 -10.210266037590685 -11.203877844324403 0 0 1
5831 725 12 -0.826 -15.409484628283588 -13.502005850452091 -0.128943751468466 0 0 0
1057 12 2 -0.34 -11.297531017442921 -19.363086817256665 -15.651136156437333 1 1 1
4557 300 11 0.413 -6.942813969731504 -11.600009711040158 -11.065628767651498 0 0 1
754 9 3 0.09 -7.674267017727255 -15.152251318830686 -17.07208499208164 1 1 0
755 9 3 0.09 -7.815644564006881 -16.63487065786933 -16.28014989553246 1 1 0
2297 25 1 -0.01 6.018775042547368 -19.53427234039301 -16.279314101318334 0 1 1
5359 568 11 0.413 -4.3118346725475565 -16.679507272564635 -15.990878753259075 0 1 0
5360 568 12 -0.826 -4.126086352057737 -17.54385178615772 -16.419891179637137 0 1 0
3262 108 7 -0.029 -1.2431015621551404 -19.458025740756284 -13.325426900940593 0 0 0
2932 71 7 0.079 -5.462936741172685 -17.279255426677373 -8.622916766673947 0 0 0
2934 71 7 0.079 -7.083364742818204 -18.166825349845592 -8.328691085338358 0 0 0
4571 305 12 -0.826 -8.409530511720634 -11.54361078811547 -9.24167473012014 0 1 0
4570 305 11 0.413 -8.607541828011515 -10.945115651096607 -8.479165768983496 0 1 0
4249 218 8 0.416 -4.543982508555991 -10.705941613608768 -0.30436741906428916 0 1 0
4323 226 9 0.372 5.209138421651791 -10.960354373740802 -19.296662169489018 0 0 0
1547 17 3 0.09 -18.36846506535529 -18.824022269421913 -18.095285785784377 1 1 1
3259 108 8 0.416 -4.028194890861036 -19.00750993104708 -13.438956917509165 0 0 0
4333 227 7 -0.029 13.369393817401594 -18.003838691959118 -18.107154163532158 0 0 0
783 9 1 -0.01 -3.5600076497222157 -11.335728351581329 -17.7585241086986 1 1 0
4441 262 11 0.413 3.198006769825007 -18.645816995240693 -17.045945204352883 0 1 0
3978 187 7 0.079 -3.279710487851615 -11.496602015114087 -13.562916993717266 -1 0 0
784 9 3 0.09 -2.9067536767461997 -12.094478960092088 -17.19534671594148 1 1 0
5407 584 11 0.413 -2.0947274996774516 -14.645828448218364 -0.45605641300826283 1 0 0
2626 37 7 0.079 -0.9924037491507894 -17.1324500028341 -16.48303263941802 0 1 0
3266 108 7 0.079 -3.0230411768097163 -17.92722782244507 -11.500060140969763 0 0 0
3264 108 6 -0.285 -2.1771776575054305 -18.12964541616131 -12.113025932589057 0 0 0
4560 301 11 0.413 1.2793477996326033 -18.833175880598986 -15.897371967066585 1 0 1
2625 37 6 -0.285 -0.829878977058395 -16.64782481562901 -17.44376240384809 0 1 0
3974 187 7 -0.029 -2.363877636448152 -13.561950959802589 -12.722056376245245 -1 0 0
3972 187 9 0.372 -1.6789841783679194 -12.679023086779726 -12.776834900977173 -1 0 0
2627 37 7 0.079 0.1396468450673185 -16.853190368501416 -17.783587333253777 0 1 0
4558 301 11 0.413 0.44603780092507683 -18.055213141316187 -14.981373421086328 1 0 1
4559 301 12 -0.826 0.40840207549811436 -18.906809605190364 -15.42712418803307 1 0 1
2621 37 10 -0.6820000000000001 -0.05182170679214122 -14.442529125712365 -18.141221476235163 0 1 0
2622 37 9 0.372 -0.8777414055393352 -15.121474195806606 -17.175790233731654 0 1 0
3973 187 7 -0.029 -1.6443619402021328 -12.336963401035232 -11.706450774507651 -1 0 0
2644 39 7 0.079 2.3874829386398857 -9.70415662230879 -15.576436851506566 -1 1 1
2640 39 9 0.372 2.5476562509729073 -11.737292954219011 -14.899801639246993 -1 1 1
2645 39 7 0.079 3.8608775115164864 -10.082857416705483 -14.840086176279053 -1 1 1
2643 39 6 -0.285 2.753203702866389 -10.29186765227327 -14.73347181342522 -1 1 1
2646 39 7 0.079 2.4892382194917335 -9.95238604334951 -13.733636834509596 -1 1 1
2639 39 10 -0.6820000000000001 1.119002851480331 -11.79743957161448 -14.92365569433737 -1 1 1
2638 39 8 0.416 0.8566960453109205 -11.55968622440955 -15.804276443193412 -1 1 1
4691 345 12 -0.826 0.5590188967452548 -11.722764184134085 -17.615751535173782 0 0 1
2641 39 7 -0.029 2.9565532635687 -12.24404868006814 -15.804434264038145 -1 1 1
3970 187 8 0.416 0.05281391277662942 -12.61566985563054 -13.816098541083626 -1 0 0
4690 345 11 0.413 0.2528920468211006 -12.648341407162896 -17.5603918874349 0 0 1
3977 187 7 0.079 -1.6856446373343128 -10.662889540044477 -13.647978323148394 -1 0 0
3971 187 10 -0.6820000000000001 -0.4435030290189889 -13.164845044606594 -13.132106598831587 -1 0 0
3975 187 6 -0.285 -2.2123653866194797 -11.681901748634933 -13.771683710038255 -1 0 0
5451 598 11 0.413 1.6729493170974397 -17.719192767364024 -12.878907495599607 0 0 1
5450 598 12 -0.826 2.55749809553443 -18.004501678171916 -12.581278243079849 0 0 1
5449 598 11 0.413 3.010812187401004 -17.51544998980712 -13.27843914848792 0 0 1
3265 108 7 0.079 -1.298855400588085 -18.26132840245203 -11.531546890273063 0 0 0
4827 390 11 0.413 0.1575325504018148 -15.295545812683613 -13.85533415942459 0 1 0
4826 390 12 -0.826 0.5573331896190844 -16.155292955615135 -14.106055812634605 0 1 0
4825 390 11 0.413 1.521514972520893 -15.935832373280483 -14.114569156885532 0 1 0
3976 187 7 0.079 -2.3617227689887508 -12.044013513195019 -14.767302105044156 -1 0 0
3484 133 8 0.416 0.42831770979102307 -13.243736028573492 -11.729749384934022 0 0 0
3485 133 10 -0.6820000000000001 0.9551132523165545 -12.967938283365145 -10.879443773061043 0 0 0
796 9 2 -0.34 -3.3214515832614424 -6.865112863487487 -19.28093930808163 1 1 0
2624 37 7 -0.029 -0.6556994824294659 -14.86080912923398 -16.127454280880254 0 1 0
3267 108 7 0.079 -2.024655761359289 -17.243569712616054 -12.773260707650262 0 0 0
3488 133 7 -0.029 1.121443121858423 -13.95194655313751 -9.080702844864062 0 0 0
788 9 3 0.09 -1.6961954341240086 -10.752916751277535 -18.369210978361856 1 1 0
3401 123 7 0.079 4.9639269470924265 -11.680723889829105 -12.365577733140592 0 0 0
2623 37 7 -0.029 -1.8577994904371145 -14.73859772351454 -17.39056950644503 0 1 0
2628 37 7 0.079 -1.617972866758602 -16.98269295683955 -18.13058752541834 0 1 0
2 1 3 0.09 5.862759134381414 -0.3822833400267908 -13.371615638818222 0 0 0
4814 386 12 -0.826 -2.9675954580195913 -19.42660017055481 -19.045730434568505 0 0 1
2635 38 7 0.079 -11.742753512013559 -1.0806345019869164 -14.362599160813744 0 0 0
2642 39 7 -0.029 2.9677957963771866 -12.22229258288837 -13.992701135693002 -1 1 1
3340 117 8 0.416 3.202799099846788 -17.430231687634056 -11.16205600128918 0 1 1
4442 262 12 -0.826 2.9268742505716783 -17.84684826812048 -16.510347571751566 0 1 0
227 3 3 0.09 7.748841747335162 -0.040432857298740243 -1.3447076252775723 0 0 0
5625 656 11 0.413 -4.950501441015276 -18.91760764073622 -1.5928741161720263 0 1 0
786 9 1 -0.01 -2.675228602752041 -10.22100731250421 -18.276019235697493 1 1 0
1704 19 3 0.09 -0.8546708005501314 -8.618276439043603 -16.10742697974677 0 0 1
4329 226 7 0.079 3.315707441806814 -10.55669021796845 -18.32429458682716 0 0 0
3486 133 9 0.372 0.40288860123672643 -13.82579303699394 -9.842485667401778 0 0 0
3489 133 6 -0.285 0.2850192151534909 -15.114095897147156 -10.550324877467714 0 0 0
3490 133 7 0.079 1.2462842075754421 -15.450911291455352 -10.871317923753589 0 0 0
5435 593 12 -0.826 2.2714974118927067 -10.354568269248274 -11.133563858758011 0 0 0
3402 123 7 0.079 5.587665930152688 -13.34107514724245 -12.724954116046112 0 0 0
4813 386 11 0.413 -2.6062799700017587 -18.873630978223467 -18.35151969965467 0 0 1
5434 593 11 0.413 1.894619301073966 -10.00374104445277 -10.290148548038935 0 0 0
4443 262 11 0.413 3.655688768570034 -17.291902758405705 -16.845883788858334 0 1 0
3347 117 7 0.079 4.627363881231025 -19.158170937501456 -11.50555347859462 0 1 1
2431 26 3 0.09 8.1561336432872 -18.946415552043188 -14.015787029664194 0 1 1
4036 194 7 -0.029 9.352071802670116 -12.390378718967236 -16.166484144963285 0 1 1
1714 19 3 0.09 1.9555375871421565 -4.869684205282927 -19.122558604419112 0 0 1
3400 123 7 0.079 6.420695064617561 -12.388581212728923 -11.575785281481572 0 0 0
3399 123 6 -0.285 5.429426254930168 -12.61546243656708 -11.964898152941338 0 0 0
2298 25 3 0.09 5.860913729705778 -18.447360733048594 -16.10835229288624 0 1 1
2529 27 3 0.09 -12.42786420083129 -19.534010492012346 -5.5396895221189455 1 1 1
4326 226 6 -0.285 4.381825680876254 -10.222871182914297 -18.33087372081741 0 0 0
4328 226 7 0.079 4.708708065930104 -10.29387205903008 -17.255889355948433 0 0 0
4428 257 11 0.413 3.783647044702821 -16.0384876706385 -15.23793937621381 -1 0 0
4427 257 12 -0.826 3.5649172554140853 -15.655908898462114 -14.36545075555651 -1 0 0
5279 541 12 -0.826 16.10263257586223 -6.5555451990059215 -18.413844778558644 -1 1 0
2422 26 2 -0.34 9.01642362708324 -16.915078716861572 -15.885077051747523 0 1 1
4426 257 11 0.413 4.213181432655539 -14.877665012244913 -14.485712166945335 -1 0 0
3397 123 7 -0.029 4.516792113562606 -12.591647152723608 -9.977109215041635 0 0 0
1735 19 3 0.09 8.060430093371991 -10.339187529451943 -13.893018798219737 0 0 1
4952 432 12 -0.826 6.804730628307653 -14.206966746884731 -18.58242843193535 0 0 0
2415 26 2 -0.34 9.123089607436441 -15.620867488195094 -13.190862081348275 0 1 1
4953 432 11 0.413 7.659046412665834 -13.66589827132793 -18.49523552598038 0 0 0
2412 26 1 -0.01 9.750800034935205 -14.628276007524587 -13.196501569118494 0 1 1
2413 26 3 0.09 9.458298644012695 -13.584062425733762 -13.551150122527014 0 1 1
2409 26 1 -0.01 10.687211727213132 -14.520380352809635 -11.914940292305907 0 1 1
2410 26 3 0.09 10.009719980873964 -13.994634964990446 -11.132427717100859 0 1 1
2407 26 3 0.09 11.924919847186484 -12.341317339860126 -11.313330842360525 0 1 1
2406 26 3 0.09 10.747556461617066 -12.28382150867606 -12.796195566026741 0 1 1
2405 26 1 -0.01 11.686942250900378 -12.826293117530222 -12.30691303117881 0 1 1
4034 194 10 -0.6820000000000001 7.408073266149863 -12.011351416451259 -16.935106012418665 0 1 1
4041 194 7 0.079 8.87195440314228 -11.409542630645094 -18.938330883250256 0 1 1
4033 194 8 0.416 6.9873957791050865 -11.335747909652392 -17.55873330588575 0 1 1
4038 194 6 -0.285 9.457907608681783 -11.812392188584537 -18.167141311930802 0 1 1
2416 26 1 -0.01 8.223265081378313 -15.651317089652972 -13.977598225035178 0 1 1
2417 26 3 0.09 7.7070370113019555 -16.585071361997798 -13.60507139493511 0 1 1
2418 26 3 0.09 7.54838348999494 -14.726473547260332 -13.990233310947545 0 1 1
4035 194 9 0.372 8.817579696331958 -11.70356996947449 -16.838217791449505 0 1 1
4039 194 7 0.079 9.5963516460015 -12.870861165306778 -18.36788687009231 0 1 1
5762 702 12 -0.826 5.6392575538339536 -13.672623444053828 -15.666113848028633 -1 0 0
5761 702 11 0.413 5.577806492881985 -13.849681309619122 -16.601759848231953 -1 0 0
2414 26 3 0.09 10.501504048219296 -14.765466859775389 -13.957506719657575 0 1 1
2408 26 2 -0.34 11.735665522420604 -13.994800612599004 -12.091996348633714 0 1 1
2411 26 3 0.09 11.049181781512205 -15.596271914889636 -11.691182687849011 0 1 1
1738 19 3 0.09 7.619406523734789 -10.73485452560744 -11.715133441139319 0 0 1
2397 26 3 0.09 11.56871134651715 -12.470095844043074 -16.27482100811951 0 1 1
5763 702 11 0.413 6.39663715559901 -13.103758539820639 -15.682837045644408 -1 0 0
2421 26 3 0.09 9.256506271580616 -14.909878196959115 -15.776547718413404 0 1 1
4322 226 10 -0.6820000000000001 6.558606129186132 -10.78096934350668 -19.04837449876987 0 0 0
2419 26 1 -0.01 8.654283469379434 -15.819602151995323 -15.483201518318062 0 1 1
3341 117 10 -0.6820000000000001 3.7009810333256525 -16.875947522622283 -10.437648827454197 0 1 1
2420 26 3 0.09 7.731035505524382 -15.942575888165809 -16.160395358710904 0 1 1
4469 271 12 -0.826 -1.7211101551822692 -0.334874976271182 -0.04724408593717658 0 -1 1
3342 117 9 0.372 5.052343068878381 -17.303712365189035 -10.620904125464618 0 1 1
2425 26 3 0.09 10.84073532027811 -16.685168288877744 -14.902613239277493 0 1 1
1733 19 1 -0.01 8.354258424572786 -9.286074190196285 -13.463560217258067 0 0 1
1734 19 3 0.09 9.520458882965938 -9.268123838770116 -13.656626834539114 0 0 1
1731 19 3 0.09 8.5967377305466 -7.986597062897741 -15.070603494837728 0 0 1
2423 26 1 -0.01 10.130205272712928 -17.250879680415505 -15.688697504369438 0 1 1
2424 26 3 0.09 10.586951020522584 -17.058438173857162 -16.72983621873761 0 1 1
3394 123 8 0.416 4.512398408239847 -14.935681922203466 -9.972232026219801 0 0 0
4037 194 7 -0.029 8.946729268058462 -10.660060759527362 -16.534951492187414 0 1 1
3344 117 7 -0.029 5.398484302848688 -16.983717383620355 -11.614230756652894 0 1 1
4742 362 12 -0.826 8.971622757825944 -17.728840602183666 -18.5900476765395 0 0 1
3396 123 9 0.372 4.664486401726965 -13.279042176975171 -10.79463051619574 0 0 0
2444 26 5 0.42 8.092685637326255 -17.37228262182261 -11.464227642030977 0 1 1
3395 123 10 -0.6820000000000001 5.2975170958668185 -14.479465773624318 -10.415900266666098 0 0 0
2395 26 1 -0.01 12.0878218317407 -13.480796579970823 -16.181243414730147 0 1 1
2402 26 1 -0.01 12.888606065681776 -12.37122437866061 -13.16418997057662 0 1 1
2396 26 3 0.09 11.242057931755308 -14.20421634130739 -16.00870522638948 0 1 1
4741 362 11 0.413 9.00203854237813 -17.642361453480554 -17.587172835522175 0 0 1
5280 541 11 0.413 16.452010769756157 -5.685109618590094 -18.21930964110846 -1 1 0
4330 227 8 0.416 10.586733113043353 -18.636216657972763 -18.87993798337171 0 0 0
2533 27 3 0.09 -13.592883434495217 -17.847947472261357 -8.266729819563087 1 1 1
4040 194 7 0.079 10.452366821314696 -11.375244434887923 -18.077737205057964 0 1 1
1717 19 3 0.09 4.151540891382155 -4.5638957095166 -18.90722061854729 0 0 1
3533 138 7 -0.029 -18.9274508050552 -15.057232534707358 -0.11479149767647684 1 1 0
2393 26 3 0.09 11.745915109692266 -14.617090911677517 -18.31690868324244 0 1 1
2403 26 3 0.09 13.867403163486532 -12.833273142584884 -12.795578775990146 0 1 1
1737 19 1 -0.01 7.6818628082687255 -9.631994291977598 -11.657733934808327 0 0 1
2429 26 2 -0.34 10.102486521054267 -19.11219053467631 -14.316194676968856 0 1 1
5379 574 11 0.413 -12.703631955740109 -18.838952776097056 -10.87750570424934 1 1 0
3343 117 7 -0.029 5.74885574170105 -16.926364149392064 -9.829899414895955 0 1 1
3370 120 7 -0.029 -17.0926050674596 -18.99870482609176 -14.349992269503229 1 1 1
1929 21 3 0.09 16.503250416527482 -3.8373582010067318 -0.7583756654211224 0 0 0
2436 26 2 -0.34 8.851329505860347 -19.310943405590812 -11.631141005016957 0 1 1
4550 298 12 -0.826 16.451553224517113 -17.255454429375167 -18.429434005267346 0 0 1
2660 41 7 -0.029 -3.638246668373968 -8.360501755589427 -1.4278572290532514 0 0 0
4331 227 10 -0.6820000000000001 11.50385054725995 -18.99213432159698 -18.64070288996961 0 0 0
2426 26 1 -0.01 10.201936171651678 -18.786983926013264 -15.448551303661977 0 1 1
2371 26 3 0.09 19.087922361884285 -10.86744961034221 -14.149479344885618 0 1 1
4551 298 11 0.413 15.71025664734479 -16.797285941815304 -17.912551874609402 0 0 1
2401 26 2 -0.34 12.58785683814572 -12.442441822615061 -14.306349414846013 0 1 1
2573 31 7 0.079 0.03360397243376606 -8.224171064515195 -0.5057041561746388 0 0 0
2483 27 3 0.09 -17.961943427364208 -14.13119726821494 -15.598450793114916 1 1 1
2480 27 3 0.09 19.316600776774703 -15.317380891005154 -17.902314098159714 0 1 1
2740 50 7 -0.029 7.092425138767478 -19.600416595803484 -1.1780763808023267 0 0 0
4545 296 11 0.413 15.581693150043249 -15.917180222616947 -15.822338404362574 0 0 1
4543 296 11 0.413 14.85034182467913 -16.988913650716224 -15.213438660446064 0 0 1
2404 26 3 0.09 12.984322368556057 -11.233684294908596 -12.925664928495687 0 1 1
2398 26 1 -0.01 13.000062980621609 -13.24358626099239 -14.95842787480904 0 1 1
2394 26 2 -0.34 12.526832860100475 -13.32799665515358 -17.265191803147648 0 1 1
2924 70 7 0.079 -6.070615286118769 -2.771744033997801 -19.262234327406087 0 0 0
2369 26 3 0.09 19.21092115316621 -13.820792454554484 -13.847126993199588 0 1 1
2375 26 3 0.09 19.185761734821348 -11.467907103523535 -16.934607121204774 0 1 1
2372 26 3 0.09 -19.000030172919512 -11.900797027763225 -15.15992609419863 1 1 1
2370 26 1 -0.01 19.120536294474476 -11.896626434487274 -14.623671747982403 0 1 1
2400 26 3 0.09 14.02242764574089 -13.093862010925333 -15.30045076103998 0 1 1
2399 26 3 0.09 13.001059594953498 -14.311095374695944 -14.478599879841468 0 1 1
4083 199 6 -0.285 19.529684610830436 -17.2227324895433 -13.316206995519757 0 0 1
2357 26 3 0.09 14.540530058303421 -14.77845947606812 -11.343825434351363 0 1 1
2376 26 3 0.09 18.129520320468096 -10.200389570305685 -16.032863271800455 0 1 1
2378 26 3 0.09 15.989366427320215 -11.407908073748631 -16.71443137019362 0 1 1
2379 26 3 0.09 17.042958922083383 -10.72723298600648 -18.018296509538928 0 1 1
2382 26 3 0.09 17.107911754623714 -12.884479041751032 -19.500873063581693 0 1 1
2384 26 1 -0.01 15.021032157136801 -12.655888697123382 -18.852466778553286 0 1 1
2387 26 2 -0.34 14.490360834516299 -13.688572908173997 -19.32517005237008 0 1 1
2392 26 3 0.09 13.489383713807776 -15.111205916734912 -17.58163077578388 0 1 1
2351 26 1 0.05 15.347384483824325 -16.717033439635596 -11.602425119328537 0 1 1
2354 26 4 -0.65 16.180783378892283 -17.19540459591678 -12.115497229949575 0 1 1
2355 26 5 0.42 16.83458634518994 -16.45124285365112 -12.120404754434183 0 1 1
2356 26 1 -0.01 15.450120726078179 -15.230588725405408 -11.939510038225707 0 1 1
2391 26 1 -0.01 12.76752701005287 -14.260007450139833 -17.940470066114784 0 1 1
2388 26 1 -0.01 13.31801180978424 -13.70399006589302 -19.228601659676343 0 1 1
2385 26 3 0.09 14.557399568864135 -12.39778121378337 -17.812108811309926 0 1 1
2383 26 3 0.09 16.536791431312736 -14.059473450716442 -18.339252718139868 0 1 1
1032 11 3 0.09 12.07145561643139 -4.121806739672583 -19.461153218836373 0 0 1
2381 26 1 -0.01 16.49112895531299 -12.967562529220459 -18.563343010392465 0 1 1
2380 26 2 -0.34 17.040317613751984 -12.703012662980031 -17.546911423556537 0 1 1
2359 26 2 -0.34 16.534628817123224 -14.749817998846787 -11.711683681262706 0 1 1
5398 581 11 0.413 16.564662690938203 -13.843268532152782 -16.222427386446228 0 0 0
2358 26 3 0.09 15.284640969064508 -14.979345072264383 -13.070163791061617 0 1 1
2377 26 1 -0.01 16.939180445085615 -11.601588848643544 -17.232625854084194 0 1 1
2364 26 3 0.09 18.417149347580644 -12.79921069520852 -10.775677617007142 0 1 1
5400 581 11 0.413 17.44492816164042 -13.871545718707218 -15.115240244230778 0 0 0
5399 581 12 -0.826 16.742707255442742 -14.519650706900562 -15.468268171509614 0 0 0
2360 26 1 -0.01 16.60657910149945 -13.611667480690103 -11.821793969689162 0 1 1
2366 26 2 -0.34 18.44060796448974 -12.52349357015284 -12.577035909478084 0 1 1
2363 26 1 -0.01 18.184676663620913 -13.295310983323965 -11.796711495719743 0 1 1
2374 26 1 -0.01 18.23697502152888 -11.326282448047303 -16.299687261198226 0 1 1