LAMMPS (31 Mar 2017)
# this script simulate a single CNT under longitudinal stress

variable	poro equal 0.03 # control the fraction of atom to remove
variable	seed equal 15462 # change to run different simulation
variable	T equal 300 # initiale temperature
variable	dt equal 0.0005 # ps unit

units		metal # required by airebo
atom_style	full
boundary	p p p
pair_style  	airebo 2.5 1 1

read_data	"data.mysystem"
  orthogonal box = (-50 -50 -60) to (50 50 60)
  1 by 1 by 1 MPI processor grid
  reading atoms ...
  700 atoms
  0 = max # of 1-2 neighbors
  0 = max # of 1-3 neighbors
  0 = max # of 1-4 neighbors
  1 = max # of special neighbors
change_box	all z final -30 70 y final -20 20 x final -20 20
  orthogonal box = (-50 -50 -30) to (50 50 70)
  orthogonal box = (-50 -20 -30) to (50 20 70)
  orthogonal box = (-20 -20 -30) to (20 20 70)

pair_coeff 	* * ./CH.airebo C C C
Reading potential file ./CH.airebo with DATE: 2011-10-25

group		CNT type 1
700 atoms in group CNT
variable	zmax equal bound(CNT,zmax)-10
variable	zmin equal bound(CNT,zmin)+10
variable	zmax0 equal bound(CNT,zmax)-20
variable	zmin0 equal bound(CNT,zmin)+20

region		top block INF INF INF INF ${zmax} INF
region		top block INF INF INF INF 45.739178 INF
region		bot block INF INF INF INF INF ${zmin}
region		bot block INF INF INF INF INF 10
region		mob block INF INF INF INF ${zmin0} ${zmax0}
region		mob block INF INF INF INF 20 ${zmax0}
region		mob block INF INF INF INF 20 35.739178
group		topgroup region top
130 atoms in group topgroup
group		botgroup region bot
130 atoms in group botgroup
group		mobile region mob
200 atoms in group mobile

set 		group topgroup type 2 # control group 1
  130 settings made for type
set 		group botgroup type 3 # control group 2
  130 settings made for type

delete_atoms 	porosity mob ${poro} ${seed} # create porosity only in the central part
delete_atoms 	porosity mob 0.03 ${seed} 
delete_atoms 	porosity mob 0.03 15462 
Deleted 7 atoms, new total = 693

fix		myber all temp/berendsen ${T} ${T} 0.1
fix		myber all temp/berendsen 300 ${T} 0.1
fix		myber all temp/berendsen 300 300 0.1
fix		mynve all nve

dump 		mydmp all atom 500 dump.eq.lammpstrj

timestep	${dt}
timestep	0.0005
thermo		500
run		5000 # first step, equilibrate the whole system at 300K
Neighbor list info ...
  update every 1 steps, delay 10 steps, check yes
  max neighbors/atom: 2000, page size: 100000
  master list distance cutoff = 10.5
  ghost atom cutoff = 10.5
  binsize = 5.25, bins = 8 8 20
  1 neighbor lists, perpetual/occasional/extra = 1 0 0
  (1) pair airebo, perpetual
      attributes: full, newton on, ghost
      pair build: full/bin/ghost
      stencil: full/ghost/bin/3d
      bin: standard
Per MPI rank memory allocation (min/avg/max) = 2.504 | 2.504 | 2.504 Mbytes
Step Temp E_pair E_mol TotEng Press 
       0            0   -4979.9019            0   -4979.9019   -3385.0324 
     500    268.59759   -4978.3832            0   -4954.3577    1488.4292 
    1000    293.06353   -4973.4368            0   -4947.2229    1731.3735 
    1500    281.59884    -4969.286            0   -4944.0976   -2069.4432 
    2000    322.96962   -4972.0421            0   -4943.1531    617.09016 
    2500    293.74264   -4969.8212            0   -4943.5465   -150.75328 
    3000    291.20542    -4969.567            0   -4943.5192    291.44032 
    3500    320.91631   -4972.3306            0   -4943.6252   -262.12758 
    4000    308.26018   -4971.7505            0   -4944.1772   -101.58437 
    4500    306.45728   -4970.2786            0   -4942.8666   -9.0057757 
    5000    289.52613   -4969.2397            0   -4943.3421   -776.24154 
Loop time of 28.173 on 1 procs for 5000 steps with 693 atoms

Performance: 7.667 ns/day, 3.130 hours/ns, 177.475 timesteps/s
99.8% CPU use with 1 MPI tasks x no OpenMP threads

MPI task timing breakdown:
Section |  min time  |  avg time  |  max time  |%varavg| %total
---------------------------------------------------------------
Pair    | 28.062     | 28.062     | 28.062     |   0.0 | 99.61
Bond    | 0.00072369 | 0.00072369 | 0.00072369 |   0.0 |  0.00
Neigh   | 0.043443   | 0.043443   | 0.043443   |   0.0 |  0.15
Comm    | 0.0022591  | 0.0022591  | 0.0022591  |   0.0 |  0.01
Output  | 0.006642   | 0.006642   | 0.006642   |   0.0 |  0.02
Modify  | 0.044837   | 0.044837   | 0.044837   |   0.0 |  0.16
Other   |            | 0.01315    |            |       |  0.05

Nlocal:    693 ave 693 max 693 min
Histogram: 1 0 0 0 0 0 0 0 0 0
Nghost:    0 ave 0 max 0 min
Histogram: 1 0 0 0 0 0 0 0 0 0
Neighs:    0 ave 0 max 0 min
Histogram: 1 0 0 0 0 0 0 0 0 0
FullNghs:  110208 ave 110208 max 110208 min
Histogram: 1 0 0 0 0 0 0 0 0 0

Total # of neighbors = 110208
Ave neighs/atom = 159.03
Ave special neighs/atom = 0
Neighbor list builds = 23
Dangerous builds = 0

unfix		myber
undump		mydmp

dump 		mydmp all atom 100 dump.run.lammpstrj

fix 		sf1 topgroup setforce NULL NULL 0.0 # kill all the force along z for the control group 1
fix 		sf2 botgroup setforce NULL NULL 0.0 # kill all the force along z for the control group 2
velocity	topgroup set NULL NULL 0 # cancel velocity for the control group 1
velocity	botgroup set NULL NULL 0 # cancel velocity for the control group 2

compute	Ttop topgroup temp/partial 1 1 0 # for thermalisation of the control group 1 along x and y only
compute	Tbot botgroup temp/partial 1 1 0 # for thermalisation of the control group 2 along x and y only
compute	Tmob mobile temp
thermo_modify 	temp Tmob # to print the temperature of the central part
WARNING: Temperature for thermo pressure is not for group all (../thermo.cpp:480)

fix		myber1 topgroup temp/berendsen ${T} ${T} 0.1
fix		myber1 topgroup temp/berendsen 300 ${T} 0.1
fix		myber1 topgroup temp/berendsen 300 300 0.1
fix_modify	myber1 temp Ttop # for thermalisation of the control group 1 along x and y only
fix		myber2 botgroup temp/berendsen ${T} ${T} 0.1
fix		myber2 botgroup temp/berendsen 300 ${T} 0.1
fix		myber2 botgroup temp/berendsen 300 300 0.1
fix_modify	myber2 temp Tbot # for thermalisation of the control group 2 along x and y only

# output
variable	L equal v_zmax-v_zmin # length of the central part
fix 		myat1 all ave/time 10 10 100 v_L file tubeLength.dat
variable	longforce equal f_sf1[3]-f_sf2[3]
fix 		myat2 all ave/time 10 10 100 v_longforce file forcetube.dat

# incremental elongation of the tube

variable 	a loop 100
label 		loop
displace_atoms	topgroup move 0 0 0.1
displace_atoms	botgroup move 0 0 -0.1
run		1000
Per MPI rank memory allocation (min/avg/max) = 2.504 | 2.504 | 2.504 Mbytes
Step Temp E_pair E_mol TotEng Press 
    5000    298.93137   -4964.8909            0    -4957.472   -1345.7632 
    5500    354.51864   -4967.0118            0   -4958.2134   -1488.5377 
    6000    354.12682   -4969.0169            0   -4960.2282   -1279.8903 
Loop time of 5.6331 on 1 procs for 1000 steps with 693 atoms

Performance: 7.669 ns/day, 3.130 hours/ns, 177.522 timesteps/s
99.8% CPU use with 1 MPI tasks x no OpenMP threads

MPI task timing breakdown:
Section |  min time  |  avg time  |  max time  |%varavg| %total
---------------------------------------------------------------
Pair    | 5.5992     | 5.5992     | 5.5992     |   0.0 | 99.40
Bond    | 0.00015383 | 0.00015383 | 0.00015383 |   0.0 |  0.00
Neigh   | 0.00752    | 0.00752    | 0.00752    |   0.0 |  0.13
Comm    | 0.00043115 | 0.00043115 | 0.00043115 |   0.0 |  0.01
Output  | 0.0052905  | 0.0052905  | 0.0052905  |   0.0 |  0.09
Modify  | 0.01779    | 0.01779    | 0.01779    |   0.0 |  0.32
Other   |            | 0.002688   |            |       |  0.05

Nlocal:    693 ave 693 max 693 min
Histogram: 1 0 0 0 0 0 0 0 0 0
Nghost:    0 ave 0 max 0 min
Histogram: 1 0 0 0 0 0 0 0 0 0
Neighs:    0 ave 0 max 0 min
Histogram: 1 0 0 0 0 0 0 0 0 0
FullNghs:  109908 ave 109908 max 109908 min
Histogram: 1 0 0 0 0 0 0 0 0 0

Total # of neighbors = 109908
Ave neighs/atom = 158.597
Ave special neighs/atom = 0
Neighbor list builds = 4
Dangerous builds = 0
next		a
jump 		input.lammps loop
displace_atoms	topgroup move 0 0 0.1
displace_atoms	botgroup move 0 0 -0.1
run		1000
Per MPI rank memory allocation (min/avg/max) = 2.504 | 2.504 | 2.504 Mbytes
Step Temp E_pair E_mol TotEng Press 
    6000    354.12682   -4963.2995            0   -4954.5108   -1678.5544 
    6500    360.26141   -4963.8292            0   -4954.8883   -1484.5612 
    7000    307.95887   -4963.7496            0   -4956.1067   -1342.5824 
Loop time of 5.62058 on 1 procs for 1000 steps with 693 atoms

Performance: 7.686 ns/day, 3.123 hours/ns, 177.918 timesteps/s
99.8% CPU use with 1 MPI tasks x no OpenMP threads

MPI task timing breakdown:
Section |  min time  |  avg time  |  max time  |%varavg| %total
---------------------------------------------------------------
Pair    | 5.5947     | 5.5947     | 5.5947     |   0.0 | 99.54
Bond    | 0.00014909 | 0.00014909 | 0.00014909 |   0.0 |  0.00
Neigh   | 0          | 0          | 0          |   0.0 |  0.00
Comm    | 0.00040713 | 0.00040713 | 0.00040713 |   0.0 |  0.01
Output  | 0.0052791  | 0.0052791  | 0.0052791  |   0.0 |  0.09
Modify  | 0.017382   | 0.017382   | 0.017382   |   0.0 |  0.31
Other   |            | 0.002657   |            |       |  0.05

Nlocal:    693 ave 693 max 693 min
Histogram: 1 0 0 0 0 0 0 0 0 0
Nghost:    0 ave 0 max 0 min
Histogram: 1 0 0 0 0 0 0 0 0 0
Neighs:    0 ave 0 max 0 min
Histogram: 1 0 0 0 0 0 0 0 0 0
FullNghs:  108870 ave 108870 max 108870 min
Histogram: 1 0 0 0 0 0 0 0 0 0

Total # of neighbors = 108870
Ave neighs/atom = 157.1
Ave special neighs/atom = 0
Neighbor list builds = 0
Dangerous builds = 0
next		a
jump 		input.lammps loop
displace_atoms	topgroup move 0 0 0.1
displace_atoms	botgroup move 0 0 -0.1
run		1000
Per MPI rank memory allocation (min/avg/max) = 2.504 | 2.504 | 2.504 Mbytes
Step Temp E_pair E_mol TotEng Press 
    7000    307.95887    -4957.883            0     -4950.24   -1736.4194 
    7500    371.20625    -4960.403            0   -4951.1904   -2111.0525 
    8000    342.44635   -4960.4042            0   -4951.9054    -1765.831 
Loop time of 5.6292 on 1 procs for 1000 steps with 693 atoms

Performance: 7.674 ns/day, 3.127 hours/ns, 177.645 timesteps/s
99.8% CPU use with 1 MPI tasks x no OpenMP threads

MPI task timing breakdown:
Section |  min time  |  avg time  |  max time  |%varavg| %total
---------------------------------------------------------------
Pair    | 5.6016     | 5.6016     | 5.6016     |   0.0 | 99.51
Bond    | 0.00014119 | 0.00014119 | 0.00014119 |   0.0 |  0.00
Neigh   | 0.0018438  | 0.0018438  | 0.0018438  |   0.0 |  0.03
Comm    | 0.00042436 | 0.00042436 | 0.00042436 |   0.0 |  0.01
Output  | 0.0051883  | 0.0051883  | 0.0051883  |   0.0 |  0.09
Modify  | 0.017417   | 0.017417   | 0.017417   |   0.0 |  0.31
Other   |            | 0.002603   |            |       |  0.05

Nlocal:    693 ave 693 max 693 min
Histogram: 1 0 0 0 0 0 0 0 0 0
Nghost:    0 ave 0 max 0 min
Histogram: 1 0 0 0 0 0 0 0 0 0
Neighs:    0 ave 0 max 0 min
Histogram: 1 0 0 0 0 0 0 0 0 0
FullNghs:  109306 ave 109306 max 109306 min
Histogram: 1 0 0 0 0 0 0 0 0 0

Total # of neighbors = 109306
Ave neighs/atom = 157.729
Ave special neighs/atom = 0
Neighbor list builds = 1
Dangerous builds = 0
next		a
jump 		input.lammps loop
displace_atoms	topgroup move 0 0 0.1
displace_atoms	botgroup move 0 0 -0.1
run		1000
Per MPI rank memory allocation (min/avg/max) = 2.504 | 2.504 | 2.504 Mbytes
Step Temp E_pair E_mol TotEng Press 
    8000    342.44635   -4954.0618            0    -4945.563   -2151.0293 
    8500    341.02988   -4956.6554            0   -4948.1918   -2256.7475 
    9000    352.67382   -4957.4159            0   -4948.6632    -2340.564 
Loop time of 5.62985 on 1 procs for 1000 steps with 693 atoms

Performance: 7.673 ns/day, 3.128 hours/ns, 177.625 timesteps/s
99.8% CPU use with 1 MPI tasks x no OpenMP threads

MPI task timing breakdown:
Section |  min time  |  avg time  |  max time  |%varavg| %total
---------------------------------------------------------------
Pair    | 5.6004     | 5.6004     | 5.6004     |   0.0 | 99.48
Bond    | 0.00013896 | 0.00013896 | 0.00013896 |   0.0 |  0.00
Neigh   | 0.0036759  | 0.0036759  | 0.0036759  |   0.0 |  0.07
Comm    | 0.00040115 | 0.00040115 | 0.00040115 |   0.0 |  0.01
Output  | 0.0051576  | 0.0051576  | 0.0051576  |   0.0 |  0.09
Modify  | 0.017452   | 0.017452   | 0.017452   |   0.0 |  0.31
Other   |            | 0.00261    |            |       |  0.05

Nlocal:    693 ave 693 max 693 min
Histogram: 1 0 0 0 0 0 0 0 0 0
Nghost:    0 ave 0 max 0 min
Histogram: 1 0 0 0 0 0 0 0 0 0
Neighs:    0 ave 0 max 0 min
Histogram: 1 0 0 0 0 0 0 0 0 0
FullNghs:  109152 ave 109152 max 109152 min
Histogram: 1 0 0 0 0 0 0 0 0 0

Total # of neighbors = 109152
Ave neighs/atom = 157.506
Ave special neighs/atom = 0
Neighbor list builds = 2
Dangerous builds = 0
next		a
jump 		input.lammps loop
displace_atoms	topgroup move 0 0 0.1
displace_atoms	botgroup move 0 0 -0.1
run		1000
Per MPI rank memory allocation (min/avg/max) = 2.504 | 2.504 | 2.504 Mbytes
Step Temp E_pair E_mol TotEng Press 
    9000    352.67382   -4950.0998            0   -4941.3472   -2694.8228 
    9500     382.3249   -4950.7896            0   -4941.3011   -2753.6404 
   10000    393.56213   -4953.3828            0   -4943.6154   -2571.3277 
Loop time of 5.62221 on 1 procs for 1000 steps with 693 atoms

Performance: 7.684 ns/day, 3.123 hours/ns, 177.866 timesteps/s
99.7% CPU use with 1 MPI tasks x no OpenMP threads

MPI task timing breakdown:
Section |  min time  |  avg time  |  max time  |%varavg| %total
---------------------------------------------------------------
Pair    | 5.5967     | 5.5967     | 5.5967     |   0.0 | 99.55
Bond    | 0.00014365 | 0.00014365 | 0.00014365 |   0.0 |  0.00
Neigh   | 0          | 0          | 0          |   0.0 |  0.00
Comm    | 0.00039626 | 0.00039626 | 0.00039626 |   0.0 |  0.01
Output  | 0.0051381  | 0.0051381  | 0.0051381  |   0.0 |  0.09
Modify  | 0.017271   | 0.017271   | 0.017271   |   0.0 |  0.31
Other   |            | 0.002604   |            |       |  0.05

Nlocal:    693 ave 693 max 693 min
Histogram: 1 0 0 0 0 0 0 0 0 0
Nghost:    0 ave 0 max 0 min
Histogram: 1 0 0 0 0 0 0 0 0 0
Neighs:    0 ave 0 max 0 min
Histogram: 1 0 0 0 0 0 0 0 0 0
FullNghs:  108530 ave 108530 max 108530 min
Histogram: 1 0 0 0 0 0 0 0 0 0

Total # of neighbors = 108530
Ave neighs/atom = 156.609
Ave special neighs/atom = 0
Neighbor list builds = 0
Dangerous builds = 0
next		a
jump 		input.lammps loop
displace_atoms	topgroup move 0 0 0.1
displace_atoms	botgroup move 0 0 -0.1
run		1000
Per MPI rank memory allocation (min/avg/max) = 2.504 | 2.504 | 2.504 Mbytes
Step Temp E_pair E_mol TotEng Press 
   10000    393.56213   -4944.9359            0   -4935.1685   -2890.1095 
   10500    467.76814   -4948.4284            0   -4936.8194   -3082.6131 
   11000    402.09738   -4947.2328            0   -4937.2536    -2795.599 
Loop time of 5.62977 on 1 procs for 1000 steps with 693 atoms

Performance: 7.673 ns/day, 3.128 hours/ns, 177.627 timesteps/s
99.7% CPU use with 1 MPI tasks x no OpenMP threads

MPI task timing breakdown:
Section |  min time  |  avg time  |  max time  |%varavg| %total
---------------------------------------------------------------
Pair    | 5.6006     | 5.6006     | 5.6006     |   0.0 | 99.48
Bond    | 0.00014865 | 0.00014865 | 0.00014865 |   0.0 |  0.00
Neigh   | 0.0018214  | 0.0018214  | 0.0018214  |   0.0 |  0.03
Comm    | 0.00039185 | 0.00039185 | 0.00039185 |   0.0 |  0.01
Output  | 0.005217   | 0.005217   | 0.005217   |   0.0 |  0.09
Modify  | 0.018886   | 0.018886   | 0.018886   |   0.0 |  0.34
Other   |            | 0.002686   |            |       |  0.05

Nlocal:    693 ave 693 max 693 min
Histogram: 1 0 0 0 0 0 0 0 0 0
Nghost:    0 ave 0 max 0 min
Histogram: 1 0 0 0 0 0 0 0 0 0
Neighs:    0 ave 0 max 0 min
Histogram: 1 0 0 0 0 0 0 0 0 0
FullNghs:  108326 ave 108326 max 108326 min
Histogram: 1 0 0 0 0 0 0 0 0 0

Total # of neighbors = 108326
Ave neighs/atom = 156.315
Ave special neighs/atom = 0
Neighbor list builds = 1
Dangerous builds = 0
next		a
jump 		input.lammps loop
displace_atoms	topgroup move 0 0 0.1
displace_atoms	botgroup move 0 0 -0.1
run		1000
Per MPI rank memory allocation (min/avg/max) = 2.504 | 2.504 | 2.504 Mbytes
Step Temp E_pair E_mol TotEng Press 
   11000    402.09738   -4939.8521            0   -4929.8729   -3158.9771 
   11500     427.6756    -4942.275            0    -4931.661   -3595.4598 
   12000    412.85916   -4942.0315            0   -4931.7852   -3174.5801 
Loop time of 5.61886 on 1 procs for 1000 steps with 693 atoms

Performance: 7.688 ns/day, 3.122 hours/ns, 177.972 timesteps/s
99.7% CPU use with 1 MPI tasks x no OpenMP threads

MPI task timing breakdown:
Section |  min time  |  avg time  |  max time  |%varavg| %total
---------------------------------------------------------------
Pair    | 5.5891     | 5.5891     | 5.5891     |   0.0 | 99.47
Bond    | 0.000148   | 0.000148   | 0.000148   |   0.0 |  0.00
Neigh   | 0.0018356  | 0.0018356  | 0.0018356  |   0.0 |  0.03
Comm    | 0.0003838  | 0.0003838  | 0.0003838  |   0.0 |  0.01
Output  | 0.0052466  | 0.0052466  | 0.0052466  |   0.0 |  0.09
Modify  | 0.019544   | 0.019544   | 0.019544   |   0.0 |  0.35
Other   |            | 0.002634   |            |       |  0.05

Nlocal:    693 ave 693 max 693 min
Histogram: 1 0 0 0 0 0 0 0 0 0
Nghost:    0 ave 0 max 0 min
Histogram: 1 0 0 0 0 0 0 0 0 0
Neighs:    0 ave 0 max 0 min
Histogram: 1 0 0 0 0 0 0 0 0 0
FullNghs:  108560 ave 108560 max 108560 min
Histogram: 1 0 0 0 0 0 0 0 0 0

Total # of neighbors = 108560
Ave neighs/atom = 156.652
Ave special neighs/atom = 0
Neighbor list builds = 1
Dangerous builds = 0
next		a
jump 		input.lammps loop
displace_atoms	topgroup move 0 0 0.1
displace_atoms	botgroup move 0 0 -0.1
run		1000
Per MPI rank memory allocation (min/avg/max) = 2.504 | 2.504 | 2.504 Mbytes
Step Temp E_pair E_mol TotEng Press 
   12000    412.85916   -4934.3931            0   -4924.1468   -3520.9109 
   12500    385.20309   -4935.3867            0   -4925.8268   -3461.9082 
   13000    411.53714   -4936.6632            0   -4926.4497   -3741.6245 
Loop time of 5.59937 on 1 procs for 1000 steps with 693 atoms

Performance: 7.715 ns/day, 3.111 hours/ns, 178.592 timesteps/s
99.7% CPU use with 1 MPI tasks x no OpenMP threads

MPI task timing breakdown:
Section |  min time  |  avg time  |  max time  |%varavg| %total
---------------------------------------------------------------
Pair    | 5.5697     | 5.5697     | 5.5697     |   0.0 | 99.47
Bond    | 0.00014751 | 0.00014751 | 0.00014751 |   0.0 |  0.00
Neigh   | 0.0036833  | 0.0036833  | 0.0036833  |   0.0 |  0.07
Comm    | 0.00039488 | 0.00039488 | 0.00039488 |   0.0 |  0.01
Output  | 0.0051959  | 0.0051959  | 0.0051959  |   0.0 |  0.09
Modify  | 0.017611   | 0.017611   | 0.017611   |   0.0 |  0.31
Other   |            | 0.002654   |            |       |  0.05

Nlocal:    693 ave 693 max 693 min
Histogram: 1 0 0 0 0 0 0 0 0 0
Nghost:    0 ave 0 max 0 min
Histogram: 1 0 0 0 0 0 0 0 0 0
Neighs:    0 ave 0 max 0 min
Histogram: 1 0 0 0 0 0 0 0 0 0
FullNghs:  107868 ave 107868 max 107868 min
Histogram: 1 0 0 0 0 0 0 0 0 0

Total # of neighbors = 107868
Ave neighs/atom = 155.654
Ave special neighs/atom = 0
Neighbor list builds = 2
Dangerous builds = 0
next		a
jump 		input.lammps loop
displace_atoms	topgroup move 0 0 0.1
displace_atoms	botgroup move 0 0 -0.1
run		1000
Per MPI rank memory allocation (min/avg/max) = 2.504 | 2.504 | 2.504 Mbytes
Step Temp E_pair E_mol TotEng Press 
   13000    411.53714   -4927.4375            0    -4917.224   -4034.5729 
   13500    413.78887   -4928.7556            0   -4918.4862   -4074.6334 
   14000    423.64271   -4929.5815            0   -4919.0676    -3845.086 
Loop time of 5.59465 on 1 procs for 1000 steps with 693 atoms

Performance: 7.722 ns/day, 3.108 hours/ns, 178.742 timesteps/s
99.7% CPU use with 1 MPI tasks x no OpenMP threads

MPI task timing breakdown:
Section |  min time  |  avg time  |  max time  |%varavg| %total
---------------------------------------------------------------
Pair    | 5.5689     | 5.5689     | 5.5689     |   0.0 | 99.54
Bond    | 0.00014377 | 0.00014377 | 0.00014377 |   0.0 |  0.00
Neigh   | 0          | 0          | 0          |   0.0 |  0.00
Comm    | 0.00035592 | 0.00035592 | 0.00035592 |   0.0 |  0.01
Output  | 0.0051426  | 0.0051426  | 0.0051426  |   0.0 |  0.09
Modify  | 0.017411   | 0.017411   | 0.017411   |   0.0 |  0.31
Other   |            | 0.00267    |            |       |  0.05

Nlocal:    693 ave 693 max 693 min
Histogram: 1 0 0 0 0 0 0 0 0 0
Nghost:    0 ave 0 max 0 min
Histogram: 1 0 0 0 0 0 0 0 0 0
Neighs:    0 ave 0 max 0 min
Histogram: 1 0 0 0 0 0 0 0 0 0
FullNghs:  107580 ave 107580 max 107580 min
Histogram: 1 0 0 0 0 0 0 0 0 0

Total # of neighbors = 107580
Ave neighs/atom = 155.238
Ave special neighs/atom = 0
Neighbor list builds = 0
Dangerous builds = 0
next		a
jump 		input.lammps loop
displace_atoms	topgroup move 0 0 0.1
displace_atoms	botgroup move 0 0 -0.1
run		1000
Per MPI rank memory allocation (min/avg/max) = 2.504 | 2.504 | 2.504 Mbytes
Step Temp E_pair E_mol TotEng Press 
   14000    423.64271   -4920.2992            0   -4909.7853   -4139.0819 
   14500    500.59273   -4923.9181            0   -4911.4944   -4261.6389 
   15000    463.51226   -4925.3528            0   -4913.8493   -4036.5621 
Loop time of 5.60622 on 1 procs for 1000 steps with 693 atoms

Performance: 7.706 ns/day, 3.115 hours/ns, 178.373 timesteps/s
99.8% CPU use with 1 MPI tasks x no OpenMP threads

MPI task timing breakdown:
Section |  min time  |  avg time  |  max time  |%varavg| %total
---------------------------------------------------------------
Pair    | 5.5767     | 5.5767     | 5.5767     |   0.0 | 99.47
Bond    | 0.00011589 | 0.00011589 | 0.00011589 |   0.0 |  0.00
Neigh   | 0.003631   | 0.003631   | 0.003631   |   0.0 |  0.06
Comm    | 0.00038774 | 0.00038774 | 0.00038774 |   0.0 |  0.01
Output  | 0.0051524  | 0.0051524  | 0.0051524  |   0.0 |  0.09
Modify  | 0.017594   | 0.017594   | 0.017594   |   0.0 |  0.31
Other   |            | 0.002614   |            |       |  0.05

Nlocal:    693 ave 693 max 693 min
Histogram: 1 0 0 0 0 0 0 0 0 0
Nghost:    0 ave 0 max 0 min
Histogram: 1 0 0 0 0 0 0 0 0 0
Neighs:    0 ave 0 max 0 min
Histogram: 1 0 0 0 0 0 0 0 0 0
FullNghs:  107490 ave 107490 max 107490 min
Histogram: 1 0 0 0 0 0 0 0 0 0

Total # of neighbors = 107490
Ave neighs/atom = 155.108
Ave special neighs/atom = 0
Neighbor list builds = 2
Dangerous builds = 0
next		a
jump 		input.lammps loop
displace_atoms	topgroup move 0 0 0.1
displace_atoms	botgroup move 0 0 -0.1
run		1000
Per MPI rank memory allocation (min/avg/max) = 2.504 | 2.504 | 2.504 Mbytes
Step Temp E_pair E_mol TotEng Press 
   15000    463.51226   -4916.4721            0   -4904.9687   -4340.5895 
   15500    494.04658   -4917.7191            0   -4905.4578   -4307.6745 
   16000     424.2472    -4917.847            0    -4907.318   -4616.7963 
Loop time of 5.60511 on 1 procs for 1000 steps with 693 atoms

Performance: 7.707 ns/day, 3.114 hours/ns, 178.409 timesteps/s
99.7% CPU use with 1 MPI tasks x no OpenMP threads

MPI task timing breakdown:
Section |  min time  |  avg time  |  max time  |%varavg| %total
---------------------------------------------------------------
Pair    | 5.5792     | 5.5792     | 5.5792     |   0.0 | 99.54
Bond    | 0.00013098 | 0.00013098 | 0.00013098 |   0.0 |  0.00
Neigh   | 0          | 0          | 0          |   0.0 |  0.00
Comm    | 0.00037963 | 0.00037963 | 0.00037963 |   0.0 |  0.01
Output  | 0.0051698  | 0.0051698  | 0.0051698  |   0.0 |  0.09
Modify  | 0.017634   | 0.017634   | 0.017634   |   0.0 |  0.31
Other   |            | 0.002622   |            |       |  0.05

Nlocal:    693 ave 693 max 693 min
Histogram: 1 0 0 0 0 0 0 0 0 0
Nghost:    0 ave 0 max 0 min
Histogram: 1 0 0 0 0 0 0 0 0 0
Neighs:    0 ave 0 max 0 min
Histogram: 1 0 0 0 0 0 0 0 0 0
FullNghs:  107298 ave 107298 max 107298 min
Histogram: 1 0 0 0 0 0 0 0 0 0

Total # of neighbors = 107298
Ave neighs/atom = 154.831
Ave special neighs/atom = 0
Neighbor list builds = 0
Dangerous builds = 0
next		a
jump 		input.lammps loop
displace_atoms	topgroup move 0 0 0.1
displace_atoms	botgroup move 0 0 -0.1
run		1000
Per MPI rank memory allocation (min/avg/max) = 2.504 | 2.504 | 2.504 Mbytes
Step Temp E_pair E_mol TotEng Press 
   16000     424.2472   -4907.9878            0   -4897.4588   -4897.6291 
   16500    449.44284   -4909.4785            0   -4898.3242   -4588.8381 
   17000    393.85359   -4909.4632            0   -4899.6886   -4732.0367 
Loop time of 5.5974 on 1 procs for 1000 steps with 693 atoms

Performance: 7.718 ns/day, 3.110 hours/ns, 178.654 timesteps/s
99.8% CPU use with 1 MPI tasks x no OpenMP threads

MPI task timing breakdown:
Section |  min time  |  avg time  |  max time  |%varavg| %total
---------------------------------------------------------------
Pair    | 5.5714     | 5.5714     | 5.5714     |   0.0 | 99.54
Bond    | 0.00011957 | 0.00011957 | 0.00011957 |   0.0 |  0.00
Neigh   | 0          | 0          | 0          |   0.0 |  0.00
Comm    | 0.00036465 | 0.00036465 | 0.00036465 |   0.0 |  0.01
Output  | 0.0052009  | 0.0052009  | 0.0052009  |   0.0 |  0.09
Modify  | 0.017578   | 0.017578   | 0.017578   |   0.0 |  0.31
Other   |            | 0.002689   |            |       |  0.05

Nlocal:    693 ave 693 max 693 min
Histogram: 1 0 0 0 0 0 0 0 0 0
Nghost:    0 ave 0 max 0 min
Histogram: 1 0 0 0 0 0 0 0 0 0
Neighs:    0 ave 0 max 0 min
Histogram: 1 0 0 0 0 0 0 0 0 0
FullNghs:  106618 ave 106618 max 106618 min
Histogram: 1 0 0 0 0 0 0 0 0 0

Total # of neighbors = 106618
Ave neighs/atom = 153.85
Ave special neighs/atom = 0
Neighbor list builds = 0
Dangerous builds = 0
next		a
jump 		input.lammps loop
displace_atoms	topgroup move 0 0 0.1
displace_atoms	botgroup move 0 0 -0.1
run		1000
Per MPI rank memory allocation (min/avg/max) = 2.504 | 2.504 | 2.504 Mbytes
Step Temp E_pair E_mol TotEng Press 
   17000    393.85359    -4898.947            0   -4889.1723   -4979.7542 
   17500    470.45649   -4901.1249            0   -4889.4491   -5141.3323 
   18000    467.17626   -4902.9051            0   -4891.3107   -4929.7466 
Loop time of 5.5982 on 1 procs for 1000 steps with 693 atoms

Performance: 7.717 ns/day, 3.110 hours/ns, 178.629 timesteps/s
99.7% CPU use with 1 MPI tasks x no OpenMP threads

MPI task timing breakdown:
Section |  min time  |  avg time  |  max time  |%varavg| %total
---------------------------------------------------------------
Pair    | 5.5704     | 5.5704     | 5.5704     |   0.0 | 99.50
Bond    | 0.00014477 | 0.00014477 | 0.00014477 |   0.0 |  0.00
Neigh   | 0.0017564  | 0.0017564  | 0.0017564  |   0.0 |  0.03
Comm    | 0.00037499 | 0.00037499 | 0.00037499 |   0.0 |  0.01
Output  | 0.0051886  | 0.0051886  | 0.0051886  |   0.0 |  0.09
Modify  | 0.017676   | 0.017676   | 0.017676   |   0.0 |  0.32
Other   |            | 0.002678   |            |       |  0.05

Nlocal:    693 ave 693 max 693 min
Histogram: 1 0 0 0 0 0 0 0 0 0
Nghost:    0 ave 0 max 0 min
Histogram: 1 0 0 0 0 0 0 0 0 0
Neighs:    0 ave 0 max 0 min
Histogram: 1 0 0 0 0 0 0 0 0 0
FullNghs:  106550 ave 106550 max 106550 min
Histogram: 1 0 0 0 0 0 0 0 0 0

Total # of neighbors = 106550
Ave neighs/atom = 153.752
Ave special neighs/atom = 0
Neighbor list builds = 1
Dangerous builds = 0
next		a
jump 		input.lammps loop
displace_atoms	topgroup move 0 0 0.1
displace_atoms	botgroup move 0 0 -0.1
run		1000
Per MPI rank memory allocation (min/avg/max) = 2.504 | 2.504 | 2.504 Mbytes
Step Temp E_pair E_mol TotEng Press 
   18000    467.17626   -4891.6082            0   -4880.0138    -5165.082 
   18500    448.32405   -4894.8297            0   -4883.7032   -5520.1241 
   19000    553.58707   -4896.7753            0   -4883.0364   -5106.6136 
Loop time of 5.60298 on 1 procs for 1000 steps with 693 atoms

Performance: 7.710 ns/day, 3.113 hours/ns, 178.476 timesteps/s
99.8% CPU use with 1 MPI tasks x no OpenMP threads

MPI task timing breakdown:
Section |  min time  |  avg time  |  max time  |%varavg| %total
---------------------------------------------------------------
Pair    | 5.5768     | 5.5768     | 5.5768     |   0.0 | 99.53
Bond    | 0.00014129 | 0.00014129 | 0.00014129 |   0.0 |  0.00
Neigh   | 0          | 0          | 0          |   0.0 |  0.00
Comm    | 0.00040707 | 0.00040707 | 0.00040707 |   0.0 |  0.01
Output  | 0.0052181  | 0.0052181  | 0.0052181  |   0.0 |  0.09
Modify  | 0.017606   | 0.017606   | 0.017606   |   0.0 |  0.31
Other   |            | 0.002779   |            |       |  0.05

Nlocal:    693 ave 693 max 693 min
Histogram: 1 0 0 0 0 0 0 0 0 0
Nghost:    0 ave 0 max 0 min
Histogram: 1 0 0 0 0 0 0 0 0 0
Neighs:    0 ave 0 max 0 min
Histogram: 1 0 0 0 0 0 0 0 0 0
FullNghs:  106150 ave 106150 max 106150 min
Histogram: 1 0 0 0 0 0 0 0 0 0

Total # of neighbors = 106150
Ave neighs/atom = 153.175
Ave special neighs/atom = 0
Neighbor list builds = 0
Dangerous builds = 0
next		a
jump 		input.lammps loop
displace_atoms	topgroup move 0 0 0.1
displace_atoms	botgroup move 0 0 -0.1
run		1000
Per MPI rank memory allocation (min/avg/max) = 2.504 | 2.504 | 2.504 Mbytes
Step Temp E_pair E_mol TotEng Press 
   19000    553.58707   -4885.1865            0   -4871.4476   -5327.7542 
   19500    496.72884   -4885.9225            0   -4873.5947   -5361.6635 
   20000    511.50143   -4888.2874            0    -4875.593   -5397.1136 
Loop time of 5.5877 on 1 procs for 1000 steps with 693 atoms

Performance: 7.731 ns/day, 3.104 hours/ns, 178.965 timesteps/s
99.7% CPU use with 1 MPI tasks x no OpenMP threads

MPI task timing breakdown:
Section |  min time  |  avg time  |  max time  |%varavg| %total
---------------------------------------------------------------
Pair    | 5.56       | 5.56       | 5.56       |   0.0 | 99.50
Bond    | 0.00014124 | 0.00014124 | 0.00014124 |   0.0 |  0.00
Neigh   | 0.0017881  | 0.0017881  | 0.0017881  |   0.0 |  0.03
Comm    | 0.0004066  | 0.0004066  | 0.0004066  |   0.0 |  0.01
Output  | 0.0052778  | 0.0052778  | 0.0052778  |   0.0 |  0.09
Modify  | 0.017418   | 0.017418   | 0.017418   |   0.0 |  0.31
Other   |            | 0.002686   |            |       |  0.05

Nlocal:    693 ave 693 max 693 min
Histogram: 1 0 0 0 0 0 0 0 0 0
Nghost:    0 ave 0 max 0 min
Histogram: 1 0 0 0 0 0 0 0 0 0
Neighs:    0 ave 0 max 0 min
Histogram: 1 0 0 0 0 0 0 0 0 0
FullNghs:  105400 ave 105400 max 105400 min
Histogram: 1 0 0 0 0 0 0 0 0 0

Total # of neighbors = 105400
Ave neighs/atom = 152.092
Ave special neighs/atom = 0
Neighbor list builds = 1
Dangerous builds = 0
next		a
jump 		input.lammps loop
displace_atoms	topgroup move 0 0 0.1
displace_atoms	botgroup move 0 0 -0.1
run		1000
Per MPI rank memory allocation (min/avg/max) = 2.504 | 2.504 | 2.504 Mbytes
Step Temp E_pair E_mol TotEng Press 
   20000    511.50143   -4877.5797            0   -4864.8853   -5642.6847 
   20500    497.05152   -4879.0964            0   -4866.7606   -5331.2696 
   21000     442.5138   -4879.0999            0   -4868.1177   -5455.5165 
Loop time of 5.59396 on 1 procs for 1000 steps with 693 atoms

Performance: 7.723 ns/day, 3.108 hours/ns, 178.764 timesteps/s
99.7% CPU use with 1 MPI tasks x no OpenMP threads

MPI task timing breakdown:
Section |  min time  |  avg time  |  max time  |%varavg| %total
---------------------------------------------------------------
Pair    | 5.5662     | 5.5662     | 5.5662     |   0.0 | 99.50
Bond    | 0.00013669 | 0.00013669 | 0.00013669 |   0.0 |  0.00
Neigh   | 0.0017562  | 0.0017562  | 0.0017562  |   0.0 |  0.03
Comm    | 0.00040305 | 0.00040305 | 0.00040305 |   0.0 |  0.01
Output  | 0.0051921  | 0.0051921  | 0.0051921  |   0.0 |  0.09
Modify  | 0.01758    | 0.01758    | 0.01758    |   0.0 |  0.31
Other   |            | 0.002693   |            |       |  0.05

Nlocal:    693 ave 693 max 693 min
Histogram: 1 0 0 0 0 0 0 0 0 0
Nghost:    0 ave 0 max 0 min
Histogram: 1 0 0 0 0 0 0 0 0 0
Neighs:    0 ave 0 max 0 min
Histogram: 1 0 0 0 0 0 0 0 0 0
FullNghs:  105974 ave 105974 max 105974 min
Histogram: 1 0 0 0 0 0 0 0 0 0

Total # of neighbors = 105974
Ave neighs/atom = 152.921
Ave special neighs/atom = 0
Neighbor list builds = 1
Dangerous builds = 0
next		a
jump 		input.lammps loop
displace_atoms	topgroup move 0 0 0.1
displace_atoms	botgroup move 0 0 -0.1
run		1000
Per MPI rank memory allocation (min/avg/max) = 2.504 | 2.504 | 2.504 Mbytes
Step Temp E_pair E_mol TotEng Press 
   21000     442.5138   -4868.3962            0   -4857.4139   -5690.5524 
   21500    486.17484   -4870.5673            0   -4858.5014   -5926.5844 
   22000    450.89942   -4870.9396            0   -4859.7492   -5608.3001 
Loop time of 5.5939 on 1 procs for 1000 steps with 693 atoms

Performance: 7.723 ns/day, 3.108 hours/ns, 178.766 timesteps/s
99.8% CPU use with 1 MPI tasks x no OpenMP threads

MPI task timing breakdown:
Section |  min time  |  avg time  |  max time  |%varavg| %total
---------------------------------------------------------------
Pair    | 5.5679     | 5.5679     | 5.5679     |   0.0 | 99.54
Bond    | 0.0001489  | 0.0001489  | 0.0001489  |   0.0 |  0.00
Neigh   | 0          | 0          | 0          |   0.0 |  0.00
Comm    | 0.0004188  | 0.0004188  | 0.0004188  |   0.0 |  0.01
Output  | 0.005197   | 0.005197   | 0.005197   |   0.0 |  0.09
Modify  | 0.017456   | 0.017456   | 0.017456   |   0.0 |  0.31
Other   |            | 0.002751   |            |       |  0.05

Nlocal:    693 ave 693 max 693 min
Histogram: 1 0 0 0 0 0 0 0 0 0
Nghost:    0 ave 0 max 0 min
Histogram: 1 0 0 0 0 0 0 0 0 0
Neighs:    0 ave 0 max 0 min
Histogram: 1 0 0 0 0 0 0 0 0 0
FullNghs:  105528 ave 105528 max 105528 min
Histogram: 1 0 0 0 0 0 0 0 0 0

Total # of neighbors = 105528
Ave neighs/atom = 152.277
Ave special neighs/atom = 0
Neighbor list builds = 0
Dangerous builds = 0
next		a
jump 		input.lammps loop
displace_atoms	topgroup move 0 0 0.1
displace_atoms	botgroup move 0 0 -0.1
run		1000
Per MPI rank memory allocation (min/avg/max) = 2.504 | 2.504 | 2.504 Mbytes
Step Temp E_pair E_mol TotEng Press 
   22000    450.89942   -4860.4775            0   -4849.2871    -5860.962 
   22500    468.09974   -4861.7811            0   -4850.1639   -5928.6474 
   23000    439.58101   -4862.1232            0   -4851.2137   -6090.6933 
Loop time of 5.6074 on 1 procs for 1000 steps with 693 atoms

Performance: 7.704 ns/day, 3.115 hours/ns, 178.336 timesteps/s
99.8% CPU use with 1 MPI tasks x no OpenMP threads

MPI task timing breakdown:
Section |  min time  |  avg time  |  max time  |%varavg| %total
---------------------------------------------------------------
Pair    | 5.5796     | 5.5796     | 5.5796     |   0.0 | 99.50
Bond    | 0.00013957 | 0.00013957 | 0.00013957 |   0.0 |  0.00
Neigh   | 0.0016854  | 0.0016854  | 0.0016854  |   0.0 |  0.03
Comm    | 0.00043431 | 0.00043431 | 0.00043431 |   0.0 |  0.01
Output  | 0.0052529  | 0.0052529  | 0.0052529  |   0.0 |  0.09
Modify  | 0.017538   | 0.017538   | 0.017538   |   0.0 |  0.31
Other   |            | 0.002738   |            |       |  0.05

Nlocal:    693 ave 693 max 693 min
Histogram: 1 0 0 0 0 0 0 0 0 0
Nghost:    0 ave 0 max 0 min
Histogram: 1 0 0 0 0 0 0 0 0 0
Neighs:    0 ave 0 max 0 min
Histogram: 1 0 0 0 0 0 0 0 0 0
FullNghs:  104876 ave 104876 max 104876 min
Histogram: 1 0 0 0 0 0 0 0 0 0

Total # of neighbors = 104876
Ave neighs/atom = 151.336
Ave special neighs/atom = 0
Neighbor list builds = 1
Dangerous builds = 0
next		a
jump 		input.lammps loop
displace_atoms	topgroup move 0 0 0.1
displace_atoms	botgroup move 0 0 -0.1
run		1000
Per MPI rank memory allocation (min/avg/max) = 2.504 | 2.504 | 2.504 Mbytes
Step Temp E_pair E_mol TotEng Press 
   23000    439.58101   -4851.5859            0   -4840.6764   -6341.9004 
   23500    486.87743   -4854.4622            0   -4842.3789   -5987.3519 
   24000    445.40585   -4853.0417            0   -4841.9876   -6454.3301 
Loop time of 5.62721 on 1 procs for 1000 steps with 693 atoms

Performance: 7.677 ns/day, 3.126 hours/ns, 177.708 timesteps/s
99.7% CPU use with 1 MPI tasks x no OpenMP threads

MPI task timing breakdown:
Section |  min time  |  avg time  |  max time  |%varavg| %total
---------------------------------------------------------------
Pair    | 5.5998     | 5.5998     | 5.5998     |   0.0 | 99.51
Bond    | 0.00012257 | 0.00012257 | 0.00012257 |   0.0 |  0.00
Neigh   | 0          | 0          | 0          |   0.0 |  0.00
Comm    | 0.00040293 | 0.00040293 | 0.00040293 |   0.0 |  0.01
Output  | 0.0066287  | 0.0066287  | 0.0066287  |   0.0 |  0.12
Modify  | 0.017551   | 0.017551   | 0.017551   |   0.0 |  0.31
Other   |            | 0.002749   |            |       |  0.05

Nlocal:    693 ave 693 max 693 min
Histogram: 1 0 0 0 0 0 0 0 0 0
Nghost:    0 ave 0 max 0 min
Histogram: 1 0 0 0 0 0 0 0 0 0
Neighs:    0 ave 0 max 0 min
Histogram: 1 0 0 0 0 0 0 0 0 0
FullNghs:  104710 ave 104710 max 104710 min
Histogram: 1 0 0 0 0 0 0 0 0 0

Total # of neighbors = 104710
Ave neighs/atom = 151.097
Ave special neighs/atom = 0
Neighbor list builds = 0
Dangerous builds = 0
next		a
jump 		input.lammps loop
displace_atoms	topgroup move 0 0 0.1
displace_atoms	botgroup move 0 0 -0.1
run		1000
Per MPI rank memory allocation (min/avg/max) = 2.504 | 2.504 | 2.504 Mbytes
Step Temp E_pair E_mol TotEng Press 
   24000    445.40585   -4841.6871            0   -4830.6331   -6671.3613 
   24500    431.46728   -4844.4388            0   -4833.7307    -6578.668 
   25000    416.73044   -4845.4224            0   -4835.0801   -6351.5393 
Loop time of 5.64522 on 1 procs for 1000 steps with 693 atoms

Performance: 7.652 ns/day, 3.136 hours/ns, 177.141 timesteps/s
99.8% CPU use with 1 MPI tasks x no OpenMP threads

MPI task timing breakdown:
Section |  min time  |  avg time  |  max time  |%varavg| %total
---------------------------------------------------------------
Pair    | 5.6193     | 5.6193     | 5.6193     |   0.0 | 99.54
Bond    | 0.00012084 | 0.00012084 | 0.00012084 |   0.0 |  0.00
Neigh   | 0          | 0          | 0          |   0.0 |  0.00
Comm    | 0.00041924 | 0.00041924 | 0.00041924 |   0.0 |  0.01
Output  | 0.0051802  | 0.0051802  | 0.0051802  |   0.0 |  0.09
Modify  | 0.017508   | 0.017508   | 0.017508   |   0.0 |  0.31
Other   |            | 0.00269    |            |       |  0.05

Nlocal:    693 ave 693 max 693 min
Histogram: 1 0 0 0 0 0 0 0 0 0
Nghost:    0 ave 0 max 0 min
Histogram: 1 0 0 0 0 0 0 0 0 0
Neighs:    0 ave 0 max 0 min
Histogram: 1 0 0 0 0 0 0 0 0 0
FullNghs:  104050 ave 104050 max 104050 min
Histogram: 1 0 0 0 0 0 0 0 0 0

Total # of neighbors = 104050
Ave neighs/atom = 150.144
Ave special neighs/atom = 0
Neighbor list builds = 0
Dangerous builds = 0
next		a
jump 		input.lammps loop
displace_atoms	topgroup move 0 0 0.1
displace_atoms	botgroup move 0 0 -0.1
run		1000
Per MPI rank memory allocation (min/avg/max) = 2.504 | 2.504 | 2.504 Mbytes
Step Temp E_pair E_mol TotEng Press 
   25000    416.73044   -4834.8038            0   -4824.4614    -6604.808 
   25500    461.74665   -4835.8262            0   -4824.3666   -6730.9523 
   26000    483.74842   -4837.1874            0   -4825.1818   -6540.7533 
Loop time of 5.70037 on 1 procs for 1000 steps with 693 atoms

Performance: 7.578 ns/day, 3.167 hours/ns, 175.427 timesteps/s
99.8% CPU use with 1 MPI tasks x no OpenMP threads

MPI task timing breakdown:
Section |  min time  |  avg time  |  max time  |%varavg| %total
---------------------------------------------------------------
Pair    | 5.6742     | 5.6742     | 5.6742     |   0.0 | 99.54
Bond    | 0.00013064 | 0.00013064 | 0.00013064 |   0.0 |  0.00
Neigh   | 0          | 0          | 0          |   0.0 |  0.00
Comm    | 0.00045417 | 0.00045417 | 0.00045417 |   0.0 |  0.01
Output  | 0.0051914  | 0.0051914  | 0.0051914  |   0.0 |  0.09
Modify  | 0.01759    | 0.01759    | 0.01759    |   0.0 |  0.31
Other   |            | 0.002788   |            |       |  0.05

Nlocal:    693 ave 693 max 693 min
Histogram: 1 0 0 0 0 0 0 0 0 0
Nghost:    0 ave 0 max 0 min
Histogram: 1 0 0 0 0 0 0 0 0 0
Neighs:    0 ave 0 max 0 min
Histogram: 1 0 0 0 0 0 0 0 0 0
FullNghs:  104336 ave 104336 max 104336 min
Histogram: 1 0 0 0 0 0 0 0 0 0

Total # of neighbors = 104336
Ave neighs/atom = 150.557
Ave special neighs/atom = 0
Neighbor list builds = 0
Dangerous builds = 0
next		a
jump 		input.lammps loop
displace_atoms	topgroup move 0 0 0.1
displace_atoms	botgroup move 0 0 -0.1
run		1000
Per MPI rank memory allocation (min/avg/max) = 2.504 | 2.504 | 2.504 Mbytes
Step Temp E_pair E_mol TotEng Press 
   26000    483.74842   -4825.4757            0   -4813.4701   -6772.5076 
   26500    393.86089   -4823.6233            0   -4813.8485   -6998.9144 
   27000    401.19737   -4826.3535            0   -4816.3966   -7224.7677 
Loop time of 5.71665 on 1 procs for 1000 steps with 693 atoms

Performance: 7.557 ns/day, 3.176 hours/ns, 174.928 timesteps/s
99.8% CPU use with 1 MPI tasks x no OpenMP threads

MPI task timing breakdown:
Section |  min time  |  avg time  |  max time  |%varavg| %total
---------------------------------------------------------------
Pair    | 5.6906     | 5.6906     | 5.6906     |   0.0 | 99.54
Bond    | 0.00014513 | 0.00014513 | 0.00014513 |   0.0 |  0.00
Neigh   | 0          | 0          | 0          |   0.0 |  0.00
Comm    | 0.0004282  | 0.0004282  | 0.0004282  |   0.0 |  0.01
Output  | 0.0051527  | 0.0051527  | 0.0051527  |   0.0 |  0.09
Modify  | 0.017487   | 0.017487   | 0.017487   |   0.0 |  0.31
Other   |            | 0.002826   |            |       |  0.05

Nlocal:    693 ave 693 max 693 min
Histogram: 1 0 0 0 0 0 0 0 0 0
Nghost:    0 ave 0 max 0 min
Histogram: 1 0 0 0 0 0 0 0 0 0
Neighs:    0 ave 0 max 0 min
Histogram: 1 0 0 0 0 0 0 0 0 0
FullNghs:  103784 ave 103784 max 103784 min
Histogram: 1 0 0 0 0 0 0 0 0 0

Total # of neighbors = 103784
Ave neighs/atom = 149.76
Ave special neighs/atom = 0
Neighbor list builds = 0
Dangerous builds = 0
next		a
jump 		input.lammps loop
displace_atoms	topgroup move 0 0 0.1
displace_atoms	botgroup move 0 0 -0.1
run		1000
Per MPI rank memory allocation (min/avg/max) = 2.504 | 2.504 | 2.504 Mbytes
Step Temp E_pair E_mol TotEng Press 
   27000    401.19737   -4815.1606            0   -4805.2037   -7451.3553 
   27500    396.94754   -4815.0194            0    -4805.168    -7297.498 
   28000    425.65951    -4817.342            0    -4806.778   -7180.1035 
Loop time of 5.72336 on 1 procs for 1000 steps with 693 atoms

Performance: 7.548 ns/day, 3.180 hours/ns, 174.723 timesteps/s
99.8% CPU use with 1 MPI tasks x no OpenMP threads

MPI task timing breakdown:
Section |  min time  |  avg time  |  max time  |%varavg| %total
---------------------------------------------------------------
Pair    | 5.6972     | 5.6972     | 5.6972     |   0.0 | 99.54
Bond    | 0.00016175 | 0.00016175 | 0.00016175 |   0.0 |  0.00
Neigh   | 0          | 0          | 0          |   0.0 |  0.00
Comm    | 0.00045348 | 0.00045348 | 0.00045348 |   0.0 |  0.01
Output  | 0.0051793  | 0.0051793  | 0.0051793  |   0.0 |  0.09
Modify  | 0.017534   | 0.017534   | 0.017534   |   0.0 |  0.31
Other   |            | 0.002793   |            |       |  0.05

Nlocal:    693 ave 693 max 693 min
Histogram: 1 0 0 0 0 0 0 0 0 0
Nghost:    0 ave 0 max 0 min
Histogram: 1 0 0 0 0 0 0 0 0 0
Neighs:    0 ave 0 max 0 min
Histogram: 1 0 0 0 0 0 0 0 0 0
FullNghs:  103306 ave 103306 max 103306 min
Histogram: 1 0 0 0 0 0 0 0 0 0

Total # of neighbors = 103306
Ave neighs/atom = 149.071
Ave special neighs/atom = 0
Neighbor list builds = 0
Dangerous builds = 0
next		a
jump 		input.lammps loop
displace_atoms	topgroup move 0 0 0.1
displace_atoms	botgroup move 0 0 -0.1
run		1000
Per MPI rank memory allocation (min/avg/max) = 2.504 | 2.504 | 2.504 Mbytes
Step Temp E_pair E_mol TotEng Press 
   28000    425.65951   -4805.4868            0   -4794.9228   -7376.6417 
   28500    386.10676   -4804.8899            0   -4795.3075   -7339.5058 
   29000    407.84324   -4806.3457            0   -4796.2238   -7475.2042 
Loop time of 5.7354 on 1 procs for 1000 steps with 693 atoms

Performance: 7.532 ns/day, 3.186 hours/ns, 174.356 timesteps/s
99.8% CPU use with 1 MPI tasks x no OpenMP threads

MPI task timing breakdown:
Section |  min time  |  avg time  |  max time  |%varavg| %total
---------------------------------------------------------------
Pair    | 5.7096     | 5.7096     | 5.7096     |   0.0 | 99.55
Bond    | 0.00016953 | 0.00016953 | 0.00016953 |   0.0 |  0.00
Neigh   | 0          | 0          | 0          |   0.0 |  0.00
Comm    | 0.00047349 | 0.00047349 | 0.00047349 |   0.0 |  0.01
Output  | 0.0051902  | 0.0051902  | 0.0051902  |   0.0 |  0.09
Modify  | 0.017241   | 0.017241   | 0.017241   |   0.0 |  0.30
Other   |            | 0.002763   |            |       |  0.05

Nlocal:    693 ave 693 max 693 min
Histogram: 1 0 0 0 0 0 0 0 0 0
Nghost:    0 ave 0 max 0 min
Histogram: 1 0 0 0 0 0 0 0 0 0
Neighs:    0 ave 0 max 0 min
Histogram: 1 0 0 0 0 0 0 0 0 0
FullNghs:  103102 ave 103102 max 103102 min
Histogram: 1 0 0 0 0 0 0 0 0 0

Total # of neighbors = 103102
Ave neighs/atom = 148.776
Ave special neighs/atom = 0
Neighbor list builds = 0
Dangerous builds = 0
next		a
jump 		input.lammps loop
displace_atoms	topgroup move 0 0 0.1
displace_atoms	botgroup move 0 0 -0.1
run		1000
Per MPI rank memory allocation (min/avg/max) = 2.504 | 2.504 | 2.504 Mbytes
Step Temp E_pair E_mol TotEng Press 
   29000    407.84324   -4794.6752            0   -4784.5534   -7708.3422 
   29500    369.22523   -4794.7485            0   -4785.5851   -7888.0126 
   30000    427.05345   -4794.9904            0   -4784.3918   -7515.7058 
Loop time of 5.72989 on 1 procs for 1000 steps with 693 atoms

Performance: 7.539 ns/day, 3.183 hours/ns, 174.523 timesteps/s
99.7% CPU use with 1 MPI tasks x no OpenMP threads

MPI task timing breakdown:
Section |  min time  |  avg time  |  max time  |%varavg| %total
---------------------------------------------------------------
Pair    | 5.7041     | 5.7041     | 5.7041     |   0.0 | 99.55
Bond    | 0.00015577 | 0.00015577 | 0.00015577 |   0.0 |  0.00
Neigh   | 0          | 0          | 0          |   0.0 |  0.00
Comm    | 0.00044856 | 0.00044856 | 0.00044856 |   0.0 |  0.01
Output  | 0.0051388  | 0.0051388  | 0.0051388  |   0.0 |  0.09
Modify  | 0.017271   | 0.017271   | 0.017271   |   0.0 |  0.30
Other   |            | 0.002756   |            |       |  0.05

Nlocal:    693 ave 693 max 693 min
Histogram: 1 0 0 0 0 0 0 0 0 0
Nghost:    0 ave 0 max 0 min
Histogram: 1 0 0 0 0 0 0 0 0 0
Neighs:    0 ave 0 max 0 min
Histogram: 1 0 0 0 0 0 0 0 0 0
FullNghs:  102880 ave 102880 max 102880 min
Histogram: 1 0 0 0 0 0 0 0 0 0

Total # of neighbors = 102880
Ave neighs/atom = 148.456
Ave special neighs/atom = 0
Neighbor list builds = 0
Dangerous builds = 0
next		a
jump 		input.lammps loop
displace_atoms	topgroup move 0 0 0.1
displace_atoms	botgroup move 0 0 -0.1
run		1000
Per MPI rank memory allocation (min/avg/max) = 2.504 | 2.504 | 2.504 Mbytes
Step Temp E_pair E_mol TotEng Press 
   30000    427.05345   -4783.2011            0   -4772.6025   -7770.0904 
   30500    392.96178   -4785.8041            0   -4776.0516   -7672.0987 
   31000    411.14978   -4785.6512            0   -4775.4473    -7952.332 
Loop time of 5.76091 on 1 procs for 1000 steps with 693 atoms

Performance: 7.499 ns/day, 3.201 hours/ns, 173.584 timesteps/s
99.8% CPU use with 1 MPI tasks x no OpenMP threads

MPI task timing breakdown:
Section |  min time  |  avg time  |  max time  |%varavg| %total
---------------------------------------------------------------
Pair    | 5.735      | 5.735      | 5.735      |   0.0 | 99.55
Bond    | 0.00015469 | 0.00015469 | 0.00015469 |   0.0 |  0.00
Neigh   | 0          | 0          | 0          |   0.0 |  0.00
Comm    | 0.00046453 | 0.00046453 | 0.00046453 |   0.0 |  0.01
Output  | 0.005157   | 0.005157   | 0.005157   |   0.0 |  0.09
Modify  | 0.017349   | 0.017349   | 0.017349   |   0.0 |  0.30
Other   |            | 0.002742   |            |       |  0.05

Nlocal:    693 ave 693 max 693 min
Histogram: 1 0 0 0 0 0 0 0 0 0
Nghost:    0 ave 0 max 0 min
Histogram: 1 0 0 0 0 0 0 0 0 0
Neighs:    0 ave 0 max 0 min
Histogram: 1 0 0 0 0 0 0 0 0 0
FullNghs:  102860 ave 102860 max 102860 min
Histogram: 1 0 0 0 0 0 0 0 0 0

Total # of neighbors = 102860
Ave neighs/atom = 148.427
Ave special neighs/atom = 0
Neighbor list builds = 0
Dangerous builds = 0
next		a
jump 		input.lammps loop
displace_atoms	topgroup move 0 0 0.1
displace_atoms	botgroup move 0 0 -0.1
run		1000
Per MPI rank memory allocation (min/avg/max) = 2.504 | 2.504 | 2.504 Mbytes
Step Temp E_pair E_mol TotEng Press 
   31000    411.14978   -4773.8725            0   -4763.6686   -8158.1832 
   31500    377.41316   -4775.7372            0   -4766.3706   -8045.7485 
   32000    408.03648   -4776.4674            0   -4766.3408   -7879.8764 
Loop time of 5.78687 on 1 procs for 1000 steps with 693 atoms

Performance: 7.465 ns/day, 3.215 hours/ns, 172.805 timesteps/s
99.7% CPU use with 1 MPI tasks x no OpenMP threads

MPI task timing breakdown:
Section |  min time  |  avg time  |  max time  |%varavg| %total
---------------------------------------------------------------
Pair    | 5.7606     | 5.7606     | 5.7606     |   0.0 | 99.55
Bond    | 0.00018387 | 0.00018387 | 0.00018387 |   0.0 |  0.00
Neigh   | 0          | 0          | 0          |   0.0 |  0.00
Comm    | 0.00049361 | 0.00049361 | 0.00049361 |   0.0 |  0.01
Output  | 0.005217   | 0.005217   | 0.005217   |   0.0 |  0.09
Modify  | 0.017511   | 0.017511   | 0.017511   |   0.0 |  0.30
Other   |            | 0.002824   |            |       |  0.05

Nlocal:    693 ave 693 max 693 min
Histogram: 1 0 0 0 0 0 0 0 0 0
Nghost:    0 ave 0 max 0 min
Histogram: 1 0 0 0 0 0 0 0 0 0
Neighs:    0 ave 0 max 0 min
Histogram: 1 0 0 0 0 0 0 0 0 0
FullNghs:  102352 ave 102352 max 102352 min
Histogram: 1 0 0 0 0 0 0 0 0 0

Total # of neighbors = 102352
Ave neighs/atom = 147.694
Ave special neighs/atom = 0
Neighbor list builds = 0
Dangerous builds = 0
next		a
jump 		input.lammps loop
displace_atoms	topgroup move 0 0 0.1
displace_atoms	botgroup move 0 0 -0.1
run		1000
Per MPI rank memory allocation (min/avg/max) = 2.504 | 2.504 | 2.504 Mbytes
Step Temp E_pair E_mol TotEng Press 
   32000    408.03648   -4763.6341            0   -4753.5075   -8095.7317 
   32500     439.1202   -4766.3523            0   -4755.4542   -8101.5891 
   33000    409.13803   -4765.2299            0   -4755.0759   -7997.5921 
Loop time of 5.78734 on 1 procs for 1000 steps with 693 atoms

Performance: 7.465 ns/day, 3.215 hours/ns, 172.791 timesteps/s
99.8% CPU use with 1 MPI tasks x no OpenMP threads

MPI task timing breakdown:
Section |  min time  |  avg time  |  max time  |%varavg| %total
---------------------------------------------------------------
Pair    | 5.7614     | 5.7614     | 5.7614     |   0.0 | 99.55
Bond    | 0.00017346 | 0.00017346 | 0.00017346 |   0.0 |  0.00
Neigh   | 0          | 0          | 0          |   0.0 |  0.00
Comm    | 0.00046761 | 0.00046761 | 0.00046761 |   0.0 |  0.01
Output  | 0.0052256  | 0.0052256  | 0.0052256  |   0.0 |  0.09
Modify  | 0.017323   | 0.017323   | 0.017323   |   0.0 |  0.30
Other   |            | 0.002754   |            |       |  0.05

Nlocal:    693 ave 693 max 693 min
Histogram: 1 0 0 0 0 0 0 0 0 0
Nghost:    0 ave 0 max 0 min
Histogram: 1 0 0 0 0 0 0 0 0 0
Neighs:    0 ave 0 max 0 min
Histogram: 1 0 0 0 0 0 0 0 0 0
FullNghs:  102312 ave 102312 max 102312 min
Histogram: 1 0 0 0 0 0 0 0 0 0

Total # of neighbors = 102312
Ave neighs/atom = 147.636
Ave special neighs/atom = 0
Neighbor list builds = 0
Dangerous builds = 0
next		a
jump 		input.lammps loop
displace_atoms	topgroup move 0 0 0.1
displace_atoms	botgroup move 0 0 -0.1
run		1000
Per MPI rank memory allocation (min/avg/max) = 2.504 | 2.504 | 2.504 Mbytes
Step Temp E_pair E_mol TotEng Press 
   33000    409.13803   -4753.3213            0   -4743.1673   -8227.9763 
   33500    411.17225   -4755.4609            0   -4745.2564   -8410.3407 
   34000    453.99519   -4757.8686            0   -4746.6013   -8164.7628 
Loop time of 5.78645 on 1 procs for 1000 steps with 693 atoms

Performance: 7.466 ns/day, 3.215 hours/ns, 172.818 timesteps/s
99.7% CPU use with 1 MPI tasks x no OpenMP threads

MPI task timing breakdown:
Section |  min time  |  avg time  |  max time  |%varavg| %total
---------------------------------------------------------------
Pair    | 5.759      | 5.759      | 5.759      |   0.0 | 99.53
Bond    | 0.00018361 | 0.00018361 | 0.00018361 |   0.0 |  0.00
Neigh   | 0.0016932  | 0.0016932  | 0.0016932  |   0.0 |  0.03
Comm    | 0.000449   | 0.000449   | 0.000449   |   0.0 |  0.01
Output  | 0.0051677  | 0.0051677  | 0.0051677  |   0.0 |  0.09
Modify  | 0.017202   | 0.017202   | 0.017202   |   0.0 |  0.30
Other   |            | 0.002722   |            |       |  0.05

Nlocal:    693 ave 693 max 693 min
Histogram: 1 0 0 0 0 0 0 0 0 0
Nghost:    0 ave 0 max 0 min
Histogram: 1 0 0 0 0 0 0 0 0 0
Neighs:    0 ave 0 max 0 min
Histogram: 1 0 0 0 0 0 0 0 0 0
FullNghs:  101862 ave 101862 max 101862 min
Histogram: 1 0 0 0 0 0 0 0 0 0

Total # of neighbors = 101862
Ave neighs/atom = 146.987
Ave special neighs/atom = 0
Neighbor list builds = 1
Dangerous builds = 0
next		a
jump 		input.lammps loop
displace_atoms	topgroup move 0 0 0.1
displace_atoms	botgroup move 0 0 -0.1
run		1000
Per MPI rank memory allocation (min/avg/max) = 2.504 | 2.504 | 2.504 Mbytes
Step Temp E_pair E_mol TotEng Press 
   34000    453.99519   -4744.4201            0   -4733.1529   -8449.0325 
   34500    396.66259   -4744.1889            0   -4734.3445   -8351.6316 
   35000    376.93329   -4743.6564            0   -4734.3017    -8603.167 
Loop time of 5.84517 on 1 procs for 1000 steps with 693 atoms

Performance: 7.391 ns/day, 3.247 hours/ns, 171.081 timesteps/s
99.7% CPU use with 1 MPI tasks x no OpenMP threads

MPI task timing breakdown:
Section |  min time  |  avg time  |  max time  |%varavg| %total
---------------------------------------------------------------
Pair    | 5.8194     | 5.8194     | 5.8194     |   0.0 | 99.56
Bond    | 0.00017562 | 0.00017562 | 0.00017562 |   0.0 |  0.00
Neigh   | 0          | 0          | 0          |   0.0 |  0.00
Comm    | 0.00046076 | 0.00046076 | 0.00046076 |   0.0 |  0.01
Output  | 0.0051271  | 0.0051271  | 0.0051271  |   0.0 |  0.09
Modify  | 0.017235   | 0.017235   | 0.017235   |   0.0 |  0.29
Other   |            | 0.002742   |            |       |  0.05

Nlocal:    693 ave 693 max 693 min
Histogram: 1 0 0 0 0 0 0 0 0 0
Nghost:    0 ave 0 max 0 min
Histogram: 1 0 0 0 0 0 0 0 0 0
Neighs:    0 ave 0 max 0 min
Histogram: 1 0 0 0 0 0 0 0 0 0
FullNghs:  102026 ave 102026 max 102026 min
Histogram: 1 0 0 0 0 0 0 0 0 0

Total # of neighbors = 102026
Ave neighs/atom = 147.224
Ave special neighs/atom = 0
Neighbor list builds = 0
Dangerous builds = 0
next		a
jump 		input.lammps loop
displace_atoms	topgroup move 0 0 0.1
displace_atoms	botgroup move 0 0 -0.1
run		1000
Per MPI rank memory allocation (min/avg/max) = 2.504 | 2.504 | 2.504 Mbytes
Step Temp E_pair E_mol TotEng Press 
   35000    376.93329   -4728.9974            0   -4719.6427   -9024.3884 
   35500    444.02295   -4733.1074            0   -4722.0876   -8760.4348 
   36000    429.08508   -4733.2843            0   -4722.6353   -8649.3548 
Loop time of 5.90025 on 1 procs for 1000 steps with 693 atoms

Performance: 7.322 ns/day, 3.278 hours/ns, 169.484 timesteps/s
99.8% CPU use with 1 MPI tasks x no OpenMP threads

MPI task timing breakdown:
Section |  min time  |  avg time  |  max time  |%varavg| %total
---------------------------------------------------------------
Pair    | 5.874      | 5.874      | 5.874      |   0.0 | 99.56
Bond    | 0.00018687 | 0.00018687 | 0.00018687 |   0.0 |  0.00
Neigh   | 0          | 0          | 0          |   0.0 |  0.00
Comm    | 0.00047643 | 0.00047643 | 0.00047643 |   0.0 |  0.01
Output  | 0.0052807  | 0.0052807  | 0.0052807  |   0.0 |  0.09
Modify  | 0.017356   | 0.017356   | 0.017356   |   0.0 |  0.29
Other   |            | 0.002914   |            |       |  0.05

Nlocal:    693 ave 693 max 693 min
Histogram: 1 0 0 0 0 0 0 0 0 0
Nghost:    0 ave 0 max 0 min
Histogram: 1 0 0 0 0 0 0 0 0 0
Neighs:    0 ave 0 max 0 min
Histogram: 1 0 0 0 0 0 0 0 0 0
FullNghs:  101710 ave 101710 max 101710 min
Histogram: 1 0 0 0 0 0 0 0 0 0

Total # of neighbors = 101710
Ave neighs/atom = 146.768
Ave special neighs/atom = 0
Neighbor list builds = 0
Dangerous builds = 0
next		a
jump 		input.lammps loop
displace_atoms	topgroup move 0 0 0.1
displace_atoms	botgroup move 0 0 -0.1
run		1000
Per MPI rank memory allocation (min/avg/max) = 2.504 | 2.504 | 2.504 Mbytes
Step Temp E_pair E_mol TotEng Press 
   36000    429.08508    -4718.111            0    -4707.462   -9135.6157 
   36500    436.95202    -4718.878            0   -4708.0338   -8960.5195 
   37000    438.26903   -4720.4148            0   -4709.5379   -8622.7853 
Loop time of 5.94097 on 1 procs for 1000 steps with 693 atoms

Performance: 7.272 ns/day, 3.301 hours/ns, 168.323 timesteps/s
99.8% CPU use with 1 MPI tasks x no OpenMP threads

MPI task timing breakdown:
Section |  min time  |  avg time  |  max time  |%varavg| %total
---------------------------------------------------------------
Pair    | 5.9152     | 5.9152     | 5.9152     |   0.0 | 99.57
Bond    | 0.00018485 | 0.00018485 | 0.00018485 |   0.0 |  0.00
Neigh   | 0          | 0          | 0          |   0.0 |  0.00
Comm    | 0.0004491  | 0.0004491  | 0.0004491  |   0.0 |  0.01
Output  | 0.0052462  | 0.0052462  | 0.0052462  |   0.0 |  0.09
Modify  | 0.017082   | 0.017082   | 0.017082   |   0.0 |  0.29
Other   |            | 0.002826   |            |       |  0.05

Nlocal:    693 ave 693 max 693 min
Histogram: 1 0 0 0 0 0 0 0 0 0
Nghost:    0 ave 0 max 0 min
Histogram: 1 0 0 0 0 0 0 0 0 0
Neighs:    0 ave 0 max 0 min
Histogram: 1 0 0 0 0 0 0 0 0 0
FullNghs:  101346 ave 101346 max 101346 min
Histogram: 1 0 0 0 0 0 0 0 0 0

Total # of neighbors = 101346
Ave neighs/atom = 146.242
Ave special neighs/atom = 0
Neighbor list builds = 0
Dangerous builds = 0
next		a
jump 		input.lammps loop
displace_atoms	topgroup move 0 0 0.1
displace_atoms	botgroup move 0 0 -0.1
run		1000
Per MPI rank memory allocation (min/avg/max) = 2.504 | 2.504 | 2.504 Mbytes
Step Temp E_pair E_mol TotEng Press 
   37000    438.26903   -4705.7207            0   -4694.8437   -8983.1952 
   37500    470.49188   -4707.7781            0   -4696.1015   -9090.9717 
   38000    439.60676    -4706.881            0   -4695.9708   -9207.0924 
Loop time of 5.96709 on 1 procs for 1000 steps with 693 atoms

Performance: 7.240 ns/day, 3.315 hours/ns, 167.586 timesteps/s
99.8% CPU use with 1 MPI tasks x no OpenMP threads

MPI task timing breakdown:
Section |  min time  |  avg time  |  max time  |%varavg| %total
---------------------------------------------------------------
Pair    | 5.9412     | 5.9412     | 5.9412     |   0.0 | 99.57
Bond    | 0.00018459 | 0.00018459 | 0.00018459 |   0.0 |  0.00
Neigh   | 0          | 0          | 0          |   0.0 |  0.00
Comm    | 0.00048494 | 0.00048494 | 0.00048494 |   0.0 |  0.01
Output  | 0.0051817  | 0.0051817  | 0.0051817  |   0.0 |  0.09
Modify  | 0.01719    | 0.01719    | 0.01719    |   0.0 |  0.29
Other   |            | 0.00282    |            |       |  0.05

Nlocal:    693 ave 693 max 693 min
Histogram: 1 0 0 0 0 0 0 0 0 0
Nghost:    0 ave 0 max 0 min
Histogram: 1 0 0 0 0 0 0 0 0 0
Neighs:    0 ave 0 max 0 min
Histogram: 1 0 0 0 0 0 0 0 0 0
FullNghs:  101480 ave 101480 max 101480 min
Histogram: 1 0 0 0 0 0 0 0 0 0

Total # of neighbors = 101480
Ave neighs/atom = 146.436
Ave special neighs/atom = 0
Neighbor list builds = 0
Dangerous builds = 0
next		a
jump 		input.lammps loop
displace_atoms	topgroup move 0 0 0.1
displace_atoms	botgroup move 0 0 -0.1
run		1000
Per MPI rank memory allocation (min/avg/max) = 2.504 | 2.504 | 2.504 Mbytes
Step Temp E_pair E_mol TotEng Press 
   38000    439.60676   -4692.8938            0   -4681.9837   -9537.3936 
   38500      483.382   -4696.5723            0   -4684.5757    -8948.775 
   39000    580.76536   -4699.0172            0   -4684.6038   -9074.8822 
Loop time of 6.01675 on 1 procs for 1000 steps with 693 atoms

Performance: 7.180 ns/day, 3.343 hours/ns, 166.203 timesteps/s
99.8% CPU use with 1 MPI tasks x no OpenMP threads

MPI task timing breakdown:
Section |  min time  |  avg time  |  max time  |%varavg| %total
---------------------------------------------------------------
Pair    | 5.9896     | 5.9896     | 5.9896     |   0.0 | 99.55
Bond    | 0.00017799 | 0.00017799 | 0.00017799 |   0.0 |  0.00
Neigh   | 0.001682   | 0.001682   | 0.001682   |   0.0 |  0.03
Comm    | 0.0004329  | 0.0004329  | 0.0004329  |   0.0 |  0.01
Output  | 0.0051942  | 0.0051942  | 0.0051942  |   0.0 |  0.09
Modify  | 0.016945   | 0.016945   | 0.016945   |   0.0 |  0.28
Other   |            | 0.002751   |            |       |  0.05

Nlocal:    693 ave 693 max 693 min
Histogram: 1 0 0 0 0 0 0 0 0 0
Nghost:    0 ave 0 max 0 min
Histogram: 1 0 0 0 0 0 0 0 0 0
Neighs:    0 ave 0 max 0 min
Histogram: 1 0 0 0 0 0 0 0 0 0
FullNghs:  101380 ave 101380 max 101380 min
Histogram: 1 0 0 0 0 0 0 0 0 0

Total # of neighbors = 101380
Ave neighs/atom = 146.291
Ave special neighs/atom = 0
Neighbor list builds = 1
Dangerous builds = 0
next		a
jump 		input.lammps loop
displace_atoms	topgroup move 0 0 0.1
displace_atoms	botgroup move 0 0 -0.1
run		1000
Per MPI rank memory allocation (min/avg/max) = 2.504 | 2.504 | 2.504 Mbytes
Step Temp E_pair E_mol TotEng Press 
   39000    580.76536   -4684.6943            0   -4670.2809   -9394.2427 
   39500     512.1901   -4685.8596            0   -4673.1481    -9586.704 
   40000    513.45205    -4686.919            0   -4674.1761   -9187.3557 
Loop time of 6.0716 on 1 procs for 1000 steps with 693 atoms

Performance: 7.115 ns/day, 3.373 hours/ns, 164.701 timesteps/s
99.7% CPU use with 1 MPI tasks x no OpenMP threads

MPI task timing breakdown:
Section |  min time  |  avg time  |  max time  |%varavg| %total
---------------------------------------------------------------
Pair    | 6.046      | 6.046      | 6.046      |   0.0 | 99.58
Bond    | 0.00018297 | 0.00018297 | 0.00018297 |   0.0 |  0.00
Neigh   | 0          | 0          | 0          |   0.0 |  0.00
Comm    | 0.00044127 | 0.00044127 | 0.00044127 |   0.0 |  0.01
Output  | 0.0052297  | 0.0052297  | 0.0052297  |   0.0 |  0.09
Modify  | 0.016903   | 0.016903   | 0.016903   |   0.0 |  0.28
Other   |            | 0.002813   |            |       |  0.05

Nlocal:    693 ave 693 max 693 min
Histogram: 1 0 0 0 0 0 0 0 0 0
Nghost:    0 ave 0 max 0 min
Histogram: 1 0 0 0 0 0 0 0 0 0
Neighs:    0 ave 0 max 0 min
Histogram: 1 0 0 0 0 0 0 0 0 0
FullNghs:  100856 ave 100856 max 100856 min
Histogram: 1 0 0 0 0 0 0 0 0 0

Total # of neighbors = 100856
Ave neighs/atom = 145.535
Ave special neighs/atom = 0
Neighbor list builds = 0
Dangerous builds = 0
next		a
jump 		input.lammps loop
displace_atoms	topgroup move 0 0 0.1
displace_atoms	botgroup move 0 0 -0.1
run		1000
Per MPI rank memory allocation (min/avg/max) = 2.504 | 2.504 | 2.504 Mbytes
Step Temp E_pair E_mol TotEng Press 
   40000    513.45205   -4671.4459            0   -4658.7031   -9676.2726 
   40500    481.17701   -4673.4309            0    -4661.489   -9356.1102 
   41000    635.35862   -4676.6808            0   -4660.9125    -9363.905 
Loop time of 6.12027 on 1 procs for 1000 steps with 693 atoms

Performance: 7.059 ns/day, 3.400 hours/ns, 163.391 timesteps/s
99.7% CPU use with 1 MPI tasks x no OpenMP threads

MPI task timing breakdown:
Section |  min time  |  avg time  |  max time  |%varavg| %total
---------------------------------------------------------------
Pair    | 6.0946     | 6.0946     | 6.0946     |   0.0 | 99.58
Bond    | 0.00018203 | 0.00018203 | 0.00018203 |   0.0 |  0.00
Neigh   | 0          | 0          | 0          |   0.0 |  0.00
Comm    | 0.00040162 | 0.00040162 | 0.00040162 |   0.0 |  0.01
Output  | 0.0052825  | 0.0052825  | 0.0052825  |   0.0 |  0.09
Modify  | 0.017016   | 0.017016   | 0.017016   |   0.0 |  0.28
Other   |            | 0.002787   |            |       |  0.05

Nlocal:    693 ave 693 max 693 min
Histogram: 1 0 0 0 0 0 0 0 0 0
Nghost:    0 ave 0 max 0 min
Histogram: 1 0 0 0 0 0 0 0 0 0
Neighs:    0 ave 0 max 0 min
Histogram: 1 0 0 0 0 0 0 0 0 0
FullNghs:  100598 ave 100598 max 100598 min
Histogram: 1 0 0 0 0 0 0 0 0 0

Total # of neighbors = 100598
Ave neighs/atom = 145.163
Ave special neighs/atom = 0
Neighbor list builds = 0
Dangerous builds = 0
next		a
jump 		input.lammps loop
displace_atoms	topgroup move 0 0 0.1
displace_atoms	botgroup move 0 0 -0.1
run		1000
Per MPI rank memory allocation (min/avg/max) = 2.504 | 2.504 | 2.504 Mbytes
Step Temp E_pair E_mol TotEng Press 
   41000    635.35862   -4660.2922            0   -4644.5239   -9954.2866 
   41500    512.24804   -4661.7813            0   -4649.0683    -9656.523 
   42000    614.49302   -4663.8754            0    -4648.625   -9541.7204 
Loop time of 6.18028 on 1 procs for 1000 steps with 693 atoms

Performance: 6.990 ns/day, 3.433 hours/ns, 161.805 timesteps/s
99.7% CPU use with 1 MPI tasks x no OpenMP threads

MPI task timing breakdown:
Section |  min time  |  avg time  |  max time  |%varavg| %total
---------------------------------------------------------------
Pair    | 6.1532     | 6.1532     | 6.1532     |   0.0 | 99.56
Bond    | 0.00019499 | 0.00019499 | 0.00019499 |   0.0 |  0.00
Neigh   | 0          | 0          | 0          |   0.0 |  0.00
Comm    | 0.00041433 | 0.00041433 | 0.00041433 |   0.0 |  0.01
Output  | 0.0065908  | 0.0065908  | 0.0065908  |   0.0 |  0.11
Modify  | 0.017086   | 0.017086   | 0.017086   |   0.0 |  0.28
Other   |            | 0.002839   |            |       |  0.05

Nlocal:    693 ave 693 max 693 min
Histogram: 1 0 0 0 0 0 0 0 0 0
Nghost:    0 ave 0 max 0 min
Histogram: 1 0 0 0 0 0 0 0 0 0
Neighs:    0 ave 0 max 0 min
Histogram: 1 0 0 0 0 0 0 0 0 0
FullNghs:  99922 ave 99922 max 99922 min
Histogram: 1 0 0 0 0 0 0 0 0 0

Total # of neighbors = 99922
Ave neighs/atom = 144.188
Ave special neighs/atom = 0
Neighbor list builds = 0
Dangerous builds = 0
next		a
jump 		input.lammps loop
displace_atoms	topgroup move 0 0 0.1
displace_atoms	botgroup move 0 0 -0.1
run		1000
Per MPI rank memory allocation (min/avg/max) = 2.504 | 2.504 | 2.504 Mbytes
Step Temp E_pair E_mol TotEng Press 
   42000    614.49302   -4648.9228            0   -4633.6723   -9981.7283 
   42500    547.86141   -4649.4803            0   -4635.8835   -9962.9685 
   43000    541.32769   -4650.6781            0   -4637.2434   -9835.4233 
Loop time of 6.20481 on 1 procs for 1000 steps with 693 atoms

Performance: 6.962 ns/day, 3.447 hours/ns, 161.165 timesteps/s
99.8% CPU use with 1 MPI tasks x no OpenMP threads

MPI task timing breakdown:
Section |  min time  |  avg time  |  max time  |%varavg| %total
---------------------------------------------------------------
Pair    | 6.1791     | 6.1791     | 6.1791     |   0.0 | 99.58
Bond    | 0.0001988  | 0.0001988  | 0.0001988  |   0.0 |  0.00
Neigh   | 0          | 0          | 0          |   0.0 |  0.00
Comm    | 0.00059787 | 0.00059787 | 0.00059787 |   0.0 |  0.01
Output  | 0.0051943  | 0.0051943  | 0.0051943  |   0.0 |  0.08
Modify  | 0.016956   | 0.016956   | 0.016956   |   0.0 |  0.27
Other   |            | 0.002815   |            |       |  0.05

Nlocal:    693 ave 693 max 693 min
Histogram: 1 0 0 0 0 0 0 0 0 0
Nghost:    1 ave 1 max 1 min
Histogram: 1 0 0 0 0 0 0 0 0 0
Neighs:    0 ave 0 max 0 min
Histogram: 1 0 0 0 0 0 0 0 0 0
FullNghs:  100080 ave 100080 max 100080 min
Histogram: 1 0 0 0 0 0 0 0 0 0

Total # of neighbors = 100080
Ave neighs/atom = 144.416
Ave special neighs/atom = 0
Neighbor list builds = 0
Dangerous builds = 0
next		a
jump 		input.lammps loop
displace_atoms	topgroup move 0 0 0.1
displace_atoms	botgroup move 0 0 -0.1
run		1000
Per MPI rank memory allocation (min/avg/max) = 2.504 | 2.504 | 2.504 Mbytes
Step Temp E_pair E_mol TotEng Press 
   43000    541.32769   -4633.7593            0   -4620.3246   -10451.788 
   43500    576.43736   -4638.4937            0   -4624.1877    -10208.36 
   44000    541.71675   -4638.6582            0   -4625.2139   -10142.488 
Loop time of 6.28781 on 1 procs for 1000 steps with 693 atoms

Performance: 6.870 ns/day, 3.493 hours/ns, 159.038 timesteps/s
99.7% CPU use with 1 MPI tasks x no OpenMP threads

MPI task timing breakdown:
Section |  min time  |  avg time  |  max time  |%varavg| %total
---------------------------------------------------------------
Pair    | 6.2621     | 6.2621     | 6.2621     |   0.0 | 99.59
Bond    | 0.00018016 | 0.00018016 | 0.00018016 |   0.0 |  0.00
Neigh   | 0          | 0          | 0          |   0.0 |  0.00
Comm    | 0.00062373 | 0.00062373 | 0.00062373 |   0.0 |  0.01
Output  | 0.0051668  | 0.0051668  | 0.0051668  |   0.0 |  0.08
Modify  | 0.017      | 0.017      | 0.017      |   0.0 |  0.27
Other   |            | 0.002766   |            |       |  0.04

Nlocal:    693 ave 693 max 693 min
Histogram: 1 0 0 0 0 0 0 0 0 0
Nghost:    2 ave 2 max 2 min
Histogram: 1 0 0 0 0 0 0 0 0 0
Neighs:    0 ave 0 max 0 min
Histogram: 1 0 0 0 0 0 0 0 0 0
FullNghs:  99682 ave 99682 max 99682 min
Histogram: 1 0 0 0 0 0 0 0 0 0

Total # of neighbors = 99682
Ave neighs/atom = 143.841
Ave special neighs/atom = 0
Neighbor list builds = 0
Dangerous builds = 0
next		a
jump 		input.lammps loop
displace_atoms	topgroup move 0 0 0.1
displace_atoms	botgroup move 0 0 -0.1
run		1000
Per MPI rank memory allocation (min/avg/max) = 2.504 | 2.504 | 2.504 Mbytes
Step Temp E_pair E_mol TotEng Press 
   44000    541.71675   -4623.2345            0   -4609.7902   -10580.095 
   44500    561.63839   -4626.0975            0   -4612.1587   -10000.293 
   45000    498.94184   -4626.2908            0   -4613.9081   -10130.375 
Loop time of 6.36319 on 1 procs for 1000 steps with 693 atoms

Performance: 6.789 ns/day, 3.535 hours/ns, 157.154 timesteps/s
99.8% CPU use with 1 MPI tasks x no OpenMP threads

MPI task timing breakdown:
Section |  min time  |  avg time  |  max time  |%varavg| %total
---------------------------------------------------------------
Pair    | 6.3372     | 6.3372     | 6.3372     |   0.0 | 99.59
Bond    | 0.00017671 | 0.00017671 | 0.00017671 |   0.0 |  0.00
Neigh   | 0          | 0          | 0          |   0.0 |  0.00
Comm    | 0.00065568 | 0.00065568 | 0.00065568 |   0.0 |  0.01
Output  | 0.005164   | 0.005164   | 0.005164   |   0.0 |  0.08
Modify  | 0.017262   | 0.017262   | 0.017262   |   0.0 |  0.27
Other   |            | 0.002768   |            |       |  0.04

Nlocal:    693 ave 693 max 693 min
Histogram: 1 0 0 0 0 0 0 0 0 0
Nghost:    3 ave 3 max 3 min
Histogram: 1 0 0 0 0 0 0 0 0 0
Neighs:    0 ave 0 max 0 min
Histogram: 1 0 0 0 0 0 0 0 0 0
FullNghs:  99210 ave 99210 max 99210 min
Histogram: 1 0 0 0 0 0 0 0 0 0

Total # of neighbors = 99210
Ave neighs/atom = 143.16
Ave special neighs/atom = 0
Neighbor list builds = 0
Dangerous builds = 0
next		a
jump 		input.lammps loop
displace_atoms	topgroup move 0 0 0.1
displace_atoms	botgroup move 0 0 -0.1
run		1000
Per MPI rank memory allocation (min/avg/max) = 2.504 | 2.504 | 2.504 Mbytes
Step Temp E_pair E_mol TotEng Press 
   45000    498.94184   -4609.8049            0   -4597.4221   -10654.108 
   45500    511.85817   -4611.1581            0   -4598.4548   -10458.666 
   46000     558.5439   -4613.3034            0   -4599.4415   -10413.128 
Loop time of 6.46372 on 1 procs for 1000 steps with 693 atoms

Performance: 6.683 ns/day, 3.591 hours/ns, 154.710 timesteps/s
99.8% CPU use with 1 MPI tasks x no OpenMP threads

MPI task timing breakdown:
Section |  min time  |  avg time  |  max time  |%varavg| %total
---------------------------------------------------------------
Pair    | 6.4374     | 6.4374     | 6.4374     |   0.0 | 99.59
Bond    | 0.00018402 | 0.00018402 | 0.00018402 |   0.0 |  0.00
Neigh   | 0          | 0          | 0          |   0.0 |  0.00
Comm    | 0.00071058 | 0.00071058 | 0.00071058 |   0.0 |  0.01
Output  | 0.0051304  | 0.0051304  | 0.0051304  |   0.0 |  0.08
Modify  | 0.017404   | 0.017404   | 0.017404   |   0.0 |  0.27
Other   |            | 0.002847   |            |       |  0.04

Nlocal:    693 ave 693 max 693 min
Histogram: 1 0 0 0 0 0 0 0 0 0
Nghost:    7 ave 7 max 7 min
Histogram: 1 0 0 0 0 0 0 0 0 0
Neighs:    0 ave 0 max 0 min
Histogram: 1 0 0 0 0 0 0 0 0 0
FullNghs:  99358 ave 99358 max 99358 min
Histogram: 1 0 0 0 0 0 0 0 0 0

Total # of neighbors = 99358
Ave neighs/atom = 143.374
Ave special neighs/atom = 0
Neighbor list builds = 0
Dangerous builds = 0
next		a
jump 		input.lammps loop
displace_atoms	topgroup move 0 0 0.1
displace_atoms	botgroup move 0 0 -0.1
run		1000
Per MPI rank memory allocation (min/avg/max) = 2.504 | 2.504 | 2.504 Mbytes
Step Temp E_pair E_mol TotEng Press 
   46000     558.5439   -4594.4953            0   -4580.6334   -11195.766 
   46500    541.75416    -4596.614            0   -4583.1688   -10520.185 
   47000    530.23274   -4598.7606            0   -4585.6013   -10808.425 
Loop time of 6.51101 on 1 procs for 1000 steps with 693 atoms

Performance: 6.635 ns/day, 3.617 hours/ns, 153.586 timesteps/s
99.7% CPU use with 1 MPI tasks x no OpenMP threads

MPI task timing breakdown:
Section |  min time  |  avg time  |  max time  |%varavg| %total
---------------------------------------------------------------
Pair    | 6.4845     | 6.4845     | 6.4845     |   0.0 | 99.59
Bond    | 0.0001811  | 0.0001811  | 0.0001811  |   0.0 |  0.00
Neigh   | 0          | 0          | 0          |   0.0 |  0.00
Comm    | 0.00075616 | 0.00075616 | 0.00075616 |   0.0 |  0.01
Output  | 0.0052118  | 0.0052118  | 0.0052118  |   0.0 |  0.08
Modify  | 0.017471   | 0.017471   | 0.017471   |   0.0 |  0.27
Other   |            | 0.002842   |            |       |  0.04

Nlocal:    693 ave 693 max 693 min
Histogram: 1 0 0 0 0 0 0 0 0 0
Nghost:    7 ave 7 max 7 min
Histogram: 1 0 0 0 0 0 0 0 0 0
Neighs:    0 ave 0 max 0 min
Histogram: 1 0 0 0 0 0 0 0 0 0
FullNghs:  98804 ave 98804 max 98804 min
Histogram: 1 0 0 0 0 0 0 0 0 0

Total # of neighbors = 98804
Ave neighs/atom = 142.574
Ave special neighs/atom = 0
Neighbor list builds = 0
Dangerous builds = 0
next		a
jump 		input.lammps loop
displace_atoms	topgroup move 0 0 0.1
displace_atoms	botgroup move 0 0 -0.1
run		1000
Per MPI rank memory allocation (min/avg/max) = 8.128 | 8.128 | 8.128 Mbytes
Step Temp E_pair E_mol TotEng Press 
   47000    530.23274   -4580.3468            0   -4567.1875   -11541.234 
   47500    533.10334   -4582.3737            0   -4569.1432   -10941.703 
   48000    526.61236   -4585.0948            0   -4572.0254   -10805.809 
Loop time of 6.78985 on 1 procs for 1000 steps with 693 atoms

Performance: 6.362 ns/day, 3.772 hours/ns, 147.279 timesteps/s
99.8% CPU use with 1 MPI tasks x no OpenMP threads

MPI task timing breakdown:
Section |  min time  |  avg time  |  max time  |%varavg| %total
---------------------------------------------------------------
Pair    | 6.7618     | 6.7618     | 6.7618     |   0.0 | 99.59
Bond    | 0.00018027 | 0.00018027 | 0.00018027 |   0.0 |  0.00
Neigh   | 0          | 0          | 0          |   0.0 |  0.00
Comm    | 0.00081228 | 0.00081228 | 0.00081228 |   0.0 |  0.01
Output  | 0.0052473  | 0.0052473  | 0.0052473  |   0.0 |  0.08
Modify  | 0.018181   | 0.018181   | 0.018181   |   0.0 |  0.27
Other   |            | 0.003621   |            |       |  0.05

Nlocal:    693 ave 693 max 693 min
Histogram: 1 0 0 0 0 0 0 0 0 0
Nghost:    9 ave 9 max 9 min
Histogram: 1 0 0 0 0 0 0 0 0 0
Neighs:    0 ave 0 max 0 min
Histogram: 1 0 0 0 0 0 0 0 0 0
FullNghs:  98498 ave 98498 max 98498 min
Histogram: 1 0 0 0 0 0 0 0 0 0

Total # of neighbors = 98498
Ave neighs/atom = 142.133
Ave special neighs/atom = 0
Neighbor list builds = 0
Dangerous builds = 0
next		a
jump 		input.lammps loop
displace_atoms	topgroup move 0 0 0.1
displace_atoms	botgroup move 0 0 -0.1
run		1000
Per MPI rank memory allocation (min/avg/max) = 8.128 | 8.128 | 8.128 Mbytes
Step Temp E_pair E_mol TotEng Press 
   48000    526.61236   -4565.4866            0   -4552.4172   -11651.587 
   48500    550.64189   -4568.2399            0   -4554.5741    -11176.34 
   49000     540.1261   -4568.6511            0   -4555.2463   -11232.442 
Loop time of 6.92615 on 1 procs for 1000 steps with 693 atoms

Performance: 6.237 ns/day, 3.848 hours/ns, 144.380 timesteps/s
99.7% CPU use with 1 MPI tasks x no OpenMP threads

MPI task timing breakdown:
Section |  min time  |  avg time  |  max time  |%varavg| %total
---------------------------------------------------------------
Pair    | 6.8981     | 6.8981     | 6.8981     |   0.0 | 99.60
Bond    | 0.00019433 | 0.00019433 | 0.00019433 |   0.0 |  0.00
Neigh   | 0          | 0          | 0          |   0.0 |  0.00
Comm    | 0.00082293 | 0.00082293 | 0.00082293 |   0.0 |  0.01
Output  | 0.0051563  | 0.0051563  | 0.0051563  |   0.0 |  0.07
Modify  | 0.018235   | 0.018235   | 0.018235   |   0.0 |  0.26
Other   |            | 0.003598   |            |       |  0.05

Nlocal:    693 ave 693 max 693 min
Histogram: 1 0 0 0 0 0 0 0 0 0
Nghost:    10 ave 10 max 10 min
Histogram: 1 0 0 0 0 0 0 0 0 0
Neighs:    0 ave 0 max 0 min
Histogram: 1 0 0 0 0 0 0 0 0 0
FullNghs:  98720 ave 98720 max 98720 min
Histogram: 1 0 0 0 0 0 0 0 0 0

Total # of neighbors = 98720
Ave neighs/atom = 142.453
Ave special neighs/atom = 0
Neighbor list builds = 0
Dangerous builds = 0
next		a
jump 		input.lammps loop
displace_atoms	topgroup move 0 0 0.1
displace_atoms	botgroup move 0 0 -0.1
run		1000
Per MPI rank memory allocation (min/avg/max) = 8.128 | 8.128 | 8.128 Mbytes
Step Temp E_pair E_mol TotEng Press 
   49000     540.1261   -4547.2753            0   -4533.8705   -12268.292 
   49500    563.81811   -4553.0668            0    -4539.074   -11957.677 
   50000    515.15773   -4551.0807            0   -4538.2955   -11596.822 
Loop time of 7.01187 on 1 procs for 1000 steps with 693 atoms

Performance: 6.161 ns/day, 3.895 hours/ns, 142.615 timesteps/s
99.8% CPU use with 1 MPI tasks x no OpenMP threads

MPI task timing breakdown:
Section |  min time  |  avg time  |  max time  |%varavg| %total
---------------------------------------------------------------
Pair    | 6.9835     | 6.9835     | 6.9835     |   0.0 | 99.59
Bond    | 0.00019752 | 0.00019752 | 0.00019752 |   0.0 |  0.00
Neigh   | 0          | 0          | 0          |   0.0 |  0.00
Comm    | 0.00086919 | 0.00086919 | 0.00086919 |   0.0 |  0.01
Output  | 0.0052771  | 0.0052771  | 0.0052771  |   0.0 |  0.08
Modify  | 0.018388   | 0.018388   | 0.018388   |   0.0 |  0.26
Other   |            | 0.00367    |            |       |  0.05

Nlocal:    693 ave 693 max 693 min
Histogram: 1 0 0 0 0 0 0 0 0 0
Nghost:    10 ave 10 max 10 min
Histogram: 1 0 0 0 0 0 0 0 0 0
Neighs:    0 ave 0 max 0 min
Histogram: 1 0 0 0 0 0 0 0 0 0
FullNghs:  98134 ave 98134 max 98134 min
Histogram: 1 0 0 0 0 0 0 0 0 0

Total # of neighbors = 98134
Ave neighs/atom = 141.608
Ave special neighs/atom = 0
Neighbor list builds = 0
Dangerous builds = 0
next		a
jump 		input.lammps loop
displace_atoms	topgroup move 0 0 0.1
displace_atoms	botgroup move 0 0 -0.1
run		1000
Per MPI rank memory allocation (min/avg/max) = 8.128 | 8.128 | 8.128 Mbytes
Step Temp E_pair E_mol TotEng Press 
   50000    515.15773   -4531.3525            0   -4518.5673   -12443.163 
   50500    592.53293   -4538.0471            0   -4523.3417   -11714.354 
   51000    580.93022   -4538.8185            0    -4524.401   -11691.407 
Loop time of 7.12469 on 1 procs for 1000 steps with 693 atoms

Performance: 6.063 ns/day, 3.958 hours/ns, 140.357 timesteps/s
99.7% CPU use with 1 MPI tasks x no OpenMP threads

[...]

Nlocal:    693 ave 693 max 693 min
Histogram: 1 0 0 0 0 0 0 0 0 0
Nghost:    74 ave 74 max 74 min
Histogram: 1 0 0 0 0 0 0 0 0 0
Neighs:    0 ave 0 max 0 min
Histogram: 1 0 0 0 0 0 0 0 0 0
FullNghs:  103212 ave 103212 max 103212 min
Histogram: 1 0 0 0 0 0 0 0 0 0

Total # of neighbors = 103212
Ave neighs/atom = 148.935
Ave special neighs/atom = 0
Neighbor list builds = 12
Dangerous builds = 0
next		a
jump 		input.lammps loop
displace_atoms	topgroup move 0 0 0.1
displace_atoms	botgroup move 0 0 -0.1
run		1000
Per MPI rank memory allocation (min/avg/max) = 8.128 | 8.128 | 8.128 Mbytes
Step Temp E_pair E_mol TotEng Press 
   93000    444.12777   -4884.0912            0   -4873.0689   -708.50597 
   93500    505.46415   -4889.9307            0   -4877.3861    -199.3185 
   94000    507.57801   -4890.2231            0   -4877.6261    30.964223 
Loop time of 5.7486 on 1 procs for 1000 steps with 693 atoms

Performance: 7.515 ns/day, 3.194 hours/ns, 173.955 timesteps/s
99.8% CPU use with 1 MPI tasks x no OpenMP threads

MPI task timing breakdown:
Section |  min time  |  avg time  |  max time  |%varavg| %total
---------------------------------------------------------------
Pair    | 5.7011     | 5.7011     | 5.7011     |   0.0 | 99.17
Bond    | 0.00018268 | 0.00018268 | 0.00018268 |   0.0 |  0.00
Neigh   | 0.020381   | 0.020381   | 0.020381   |   0.0 |  0.35
Comm    | 0.0011811  | 0.0011811  | 0.0011811  |   0.0 |  0.02
Output  | 0.0052314  | 0.0052314  | 0.0052314  |   0.0 |  0.09
Modify  | 0.017314   | 0.017314   | 0.017314   |   0.0 |  0.30
Other   |            | 0.003242   |            |       |  0.06

Nlocal:    693 ave 693 max 693 min
Histogram: 1 0 0 0 0 0 0 0 0 0
Nghost:    75 ave 75 max 75 min
Histogram: 1 0 0 0 0 0 0 0 0 0
Neighs:    0 ave 0 max 0 min
Histogram: 1 0 0 0 0 0 0 0 0 0
FullNghs:  103444 ave 103444 max 103444 min
Histogram: 1 0 0 0 0 0 0 0 0 0

Total # of neighbors = 103444
Ave neighs/atom = 149.27
Ave special neighs/atom = 0
Neighbor list builds = 12
Dangerous builds = 0
next		a
jump 		input.lammps loop
displace_atoms	topgroup move 0 0 0.1
displace_atoms	botgroup move 0 0 -0.1
run		1000
Per MPI rank memory allocation (min/avg/max) = 8.128 | 8.128 | 8.128 Mbytes
Step Temp E_pair E_mol TotEng Press 
   94000    507.57801   -4886.0366            0   -4873.4395   -408.10948 
   94500    556.26154   -4889.8941            0   -4876.0888   -137.75478 
   95000    583.96267   -4890.1502            0   -4875.6574   -145.67238 
Loop time of 5.75465 on 1 procs for 1000 steps with 693 atoms

Performance: 7.507 ns/day, 3.197 hours/ns, 173.772 timesteps/s
99.7% CPU use with 1 MPI tasks x no OpenMP threads

MPI task timing breakdown:
Section |  min time  |  avg time  |  max time  |%varavg| %total
---------------------------------------------------------------
Pair    | 5.7064     | 5.7064     | 5.7064     |   0.0 | 99.16
Bond    | 0.00019186 | 0.00019186 | 0.00019186 |   0.0 |  0.00
Neigh   | 0.020684   | 0.020684   | 0.020684   |   0.0 |  0.36
Comm    | 0.0012286  | 0.0012286  | 0.0012286  |   0.0 |  0.02
Output  | 0.0051857  | 0.0051857  | 0.0051857  |   0.0 |  0.09
Modify  | 0.017671   | 0.017671   | 0.017671   |   0.0 |  0.31
Other   |            | 0.003271   |            |       |  0.06

Nlocal:    693 ave 693 max 693 min
Histogram: 1 0 0 0 0 0 0 0 0 0
Nghost:    79 ave 79 max 79 min
Histogram: 1 0 0 0 0 0 0 0 0 0
Neighs:    0 ave 0 max 0 min
Histogram: 1 0 0 0 0 0 0 0 0 0
FullNghs:  103292 ave 103292 max 103292 min
Histogram: 1 0 0 0 0 0 0 0 0 0

Total # of neighbors = 103292
Ave neighs/atom = 149.051
Ave special neighs/atom = 0
Neighbor list builds = 12
Dangerous builds = 0
next		a
jump 		input.lammps loop
displace_atoms	topgroup move 0 0 0.1
displace_atoms	botgroup move 0 0 -0.1
run		1000
Per MPI rank memory allocation (min/avg/max) = 8.128 | 8.128 | 8.128 Mbytes
Step Temp E_pair E_mol TotEng Press 
   95000    583.96267   -4887.1249            0   -4872.6321   -626.19469 
   95500    530.82177   -4889.5782            0   -4876.4043     -173.832 
   96000    459.11768   -4889.1364            0    -4877.742    50.055735 
Loop time of 5.74067 on 1 procs for 1000 steps with 693 atoms

Performance: 7.525 ns/day, 3.189 hours/ns, 174.196 timesteps/s
99.7% CPU use with 1 MPI tasks x no OpenMP threads

MPI task timing breakdown:
Section |  min time  |  avg time  |  max time  |%varavg| %total
---------------------------------------------------------------
Pair    | 5.6939     | 5.6939     | 5.6939     |   0.0 | 99.19
Bond    | 0.00018462 | 0.00018462 | 0.00018462 |   0.0 |  0.00
Neigh   | 0.018978   | 0.018978   | 0.018978   |   0.0 |  0.33
Comm    | 0.0012683  | 0.0012683  | 0.0012683  |   0.0 |  0.02
Output  | 0.00522    | 0.00522    | 0.00522    |   0.0 |  0.09
Modify  | 0.017741   | 0.017741   | 0.017741   |   0.0 |  0.31
Other   |            | 0.003375   |            |       |  0.06

Nlocal:    693 ave 693 max 693 min
Histogram: 1 0 0 0 0 0 0 0 0 0
Nghost:    79 ave 79 max 79 min
Histogram: 1 0 0 0 0 0 0 0 0 0
Neighs:    0 ave 0 max 0 min
Histogram: 1 0 0 0 0 0 0 0 0 0
FullNghs:  103034 ave 103034 max 103034 min
Histogram: 1 0 0 0 0 0 0 0 0 0

Total # of neighbors = 103034
Ave neighs/atom = 148.678
Ave special neighs/atom = 0
Neighbor list builds = 11
Dangerous builds = 0
next		a
jump 		input.lammps loop
displace_atoms	topgroup move 0 0 0.1
displace_atoms	botgroup move 0 0 -0.1
run		1000
Per MPI rank memory allocation (min/avg/max) = 8.128 | 8.128 | 8.128 Mbytes
Step Temp E_pair E_mol TotEng Press 
   96000    459.11768   -4885.2417            0   -4873.8474   -400.53329 
   96500    479.45647   -4888.0144            0   -4876.1153   -491.97938 
   97000    488.68949   -4889.6676            0   -4877.5393   -145.42466 
Loop time of 5.73897 on 1 procs for 1000 steps with 693 atoms

Performance: 7.527 ns/day, 3.188 hours/ns, 174.247 timesteps/s
99.7% CPU use with 1 MPI tasks x no OpenMP threads

MPI task timing breakdown:
Section |  min time  |  avg time  |  max time  |%varavg| %total
---------------------------------------------------------------
Pair    | 5.6894     | 5.6894     | 5.6894     |   0.0 | 99.14
Bond    | 0.00018685 | 0.00018685 | 0.00018685 |   0.0 |  0.00
Neigh   | 0.02072    | 0.02072    | 0.02072    |   0.0 |  0.36
Comm    | 0.001179   | 0.001179   | 0.001179   |   0.0 |  0.02
Output  | 0.0065667  | 0.0065667  | 0.0065667  |   0.0 |  0.11
Modify  | 0.017689   | 0.017689   | 0.017689   |   0.0 |  0.31
Other   |            | 0.003265   |            |       |  0.06

Nlocal:    693 ave 693 max 693 min
Histogram: 1 0 0 0 0 0 0 0 0 0
Nghost:    70 ave 70 max 70 min
Histogram: 1 0 0 0 0 0 0 0 0 0
Neighs:    0 ave 0 max 0 min
Histogram: 1 0 0 0 0 0 0 0 0 0
FullNghs:  103762 ave 103762 max 103762 min
Histogram: 1 0 0 0 0 0 0 0 0 0

Total # of neighbors = 103762
Ave neighs/atom = 149.729
Ave special neighs/atom = 0
Neighbor list builds = 12
Dangerous builds = 0
next		a
jump 		input.lammps loop
displace_atoms	topgroup move 0 0 0.1
displace_atoms	botgroup move 0 0 -0.1
run		1000
Per MPI rank memory allocation (min/avg/max) = 8.128 | 8.128 | 8.128 Mbytes
Step Temp E_pair E_mol TotEng Press 
   97000    488.68949   -4885.5974            0   -4873.4692   -595.16145 
   97500    510.52585   -4888.9715            0   -4876.3013   -415.79541 
   98000    494.29165   -4890.0582            0   -4877.7909   -5.0672577 
Loop time of 5.74935 on 1 procs for 1000 steps with 693 atoms

Performance: 7.514 ns/day, 3.194 hours/ns, 173.933 timesteps/s
99.8% CPU use with 1 MPI tasks x no OpenMP threads

MPI task timing breakdown:
Section |  min time  |  avg time  |  max time  |%varavg| %total
---------------------------------------------------------------
Pair    | 5.7009     | 5.7009     | 5.7009     |   0.0 | 99.16
Bond    | 0.00019884 | 0.00019884 | 0.00019884 |   0.0 |  0.00
Neigh   | 0.020751   | 0.020751   | 0.020751   |   0.0 |  0.36
Comm    | 0.0010399  | 0.0010399  | 0.0010399  |   0.0 |  0.02
Output  | 0.0052068  | 0.0052068  | 0.0052068  |   0.0 |  0.09
Modify  | 0.017951   | 0.017951   | 0.017951   |   0.0 |  0.31
Other   |            | 0.003335   |            |       |  0.06

Nlocal:    693 ave 693 max 693 min
Histogram: 1 0 0 0 0 0 0 0 0 0
Nghost:    70 ave 70 max 70 min
Histogram: 1 0 0 0 0 0 0 0 0 0
Neighs:    0 ave 0 max 0 min
Histogram: 1 0 0 0 0 0 0 0 0 0
FullNghs:  103832 ave 103832 max 103832 min
Histogram: 1 0 0 0 0 0 0 0 0 0

Total # of neighbors = 103832
Ave neighs/atom = 149.83
Ave special neighs/atom = 0
Neighbor list builds = 12
Dangerous builds = 0
next		a
jump 		input.lammps loop
displace_atoms	topgroup move 0 0 0.1
displace_atoms	botgroup move 0 0 -0.1
run		1000
Per MPI rank memory allocation (min/avg/max) = 8.128 | 8.128 | 8.128 Mbytes
Step Temp E_pair E_mol TotEng Press 
   98000    494.29165   -4885.5274            0   -4873.2601   -440.95962 
   98500    516.13877   -4889.1818            0   -4876.3722   -76.083358 
   99000    565.03136   -4891.9995            0   -4877.9766   -276.42819 
Loop time of 5.7273 on 1 procs for 1000 steps with 693 atoms

Performance: 7.543 ns/day, 3.182 hours/ns, 174.602 timesteps/s
99.7% CPU use with 1 MPI tasks x no OpenMP threads

MPI task timing breakdown:
Section |  min time  |  avg time  |  max time  |%varavg| %total
---------------------------------------------------------------
Pair    | 5.6772     | 5.6772     | 5.6772     |   0.0 | 99.13
Bond    | 0.00017891 | 0.00017891 | 0.00017891 |   0.0 |  0.00
Neigh   | 0.022471   | 0.022471   | 0.022471   |   0.0 |  0.39
Comm    | 0.0010933  | 0.0010933  | 0.0010933  |   0.0 |  0.02
Output  | 0.005184   | 0.005184   | 0.005184   |   0.0 |  0.09
Modify  | 0.017865   | 0.017865   | 0.017865   |   0.0 |  0.31
Other   |            | 0.003299   |            |       |  0.06

Nlocal:    693 ave 693 max 693 min
Histogram: 1 0 0 0 0 0 0 0 0 0
Nghost:    75 ave 75 max 75 min
Histogram: 1 0 0 0 0 0 0 0 0 0
Neighs:    0 ave 0 max 0 min
Histogram: 1 0 0 0 0 0 0 0 0 0
FullNghs:  103100 ave 103100 max 103100 min
Histogram: 1 0 0 0 0 0 0 0 0 0

Total # of neighbors = 103100
Ave neighs/atom = 148.773
Ave special neighs/atom = 0
Neighbor list builds = 13
Dangerous builds = 0
next		a
jump 		input.lammps loop
displace_atoms	topgroup move 0 0 0.1
displace_atoms	botgroup move 0 0 -0.1
run		1000
Per MPI rank memory allocation (min/avg/max) = 8.128 | 8.128 | 8.128 Mbytes
Step Temp E_pair E_mol TotEng Press 
   99000    565.03136   -4887.5063            0   -4873.4834   -710.78446 
   99500    524.80381   -4889.6598            0   -4876.6353   -171.22692 
  100000    493.51885   -4891.8474            0   -4879.5993    236.99721 
Loop time of 5.71434 on 1 procs for 1000 steps with 693 atoms

Performance: 7.560 ns/day, 3.175 hours/ns, 174.998 timesteps/s
99.7% CPU use with 1 MPI tasks x no OpenMP threads

MPI task timing breakdown:
Section |  min time  |  avg time  |  max time  |%varavg| %total
---------------------------------------------------------------
Pair    | 5.6641     | 5.6641     | 5.6641     |   0.0 | 99.12
Bond    | 0.0001762  | 0.0001762  | 0.0001762  |   0.0 |  0.00
Neigh   | 0.022382   | 0.022382   | 0.022382   |   0.0 |  0.39
Comm    | 0.0011873  | 0.0011873  | 0.0011873  |   0.0 |  0.02
Output  | 0.0052337  | 0.0052337  | 0.0052337  |   0.0 |  0.09
Modify  | 0.017961   | 0.017961   | 0.017961   |   0.0 |  0.31
Other   |            | 0.0033     |            |       |  0.06

Nlocal:    693 ave 693 max 693 min
Histogram: 1 0 0 0 0 0 0 0 0 0
Nghost:    82 ave 82 max 82 min
Histogram: 1 0 0 0 0 0 0 0 0 0
Neighs:    0 ave 0 max 0 min
Histogram: 1 0 0 0 0 0 0 0 0 0
FullNghs:  103524 ave 103524 max 103524 min
Histogram: 1 0 0 0 0 0 0 0 0 0

Total # of neighbors = 103524
Ave neighs/atom = 149.385
Ave special neighs/atom = 0
Neighbor list builds = 13
Dangerous builds = 0
next		a
jump 		input.lammps loop
displace_atoms	topgroup move 0 0 0.1
displace_atoms	botgroup move 0 0 -0.1
run		1000
Per MPI rank memory allocation (min/avg/max) = 8.128 | 8.128 | 8.128 Mbytes
Step Temp E_pair E_mol TotEng Press 
  100000    493.51885   -4887.5738            0   -4875.3257   -200.79389 
  100500    533.88039   -4891.7178            0    -4878.468   -587.33133 
  101000    513.33321   -4891.8277            0   -4879.0878    83.756455 
Loop time of 5.71385 on 1 procs for 1000 steps with 693 atoms

Performance: 7.561 ns/day, 3.174 hours/ns, 175.013 timesteps/s
99.8% CPU use with 1 MPI tasks x no OpenMP threads

MPI task timing breakdown:
Section |  min time  |  avg time  |  max time  |%varavg| %total
---------------------------------------------------------------
Pair    | 5.6635     | 5.6635     | 5.6635     |   0.0 | 99.12
Bond    | 0.00018771 | 0.00018771 | 0.00018771 |   0.0 |  0.00
Neigh   | 0.022518   | 0.022518   | 0.022518   |   0.0 |  0.39
Comm    | 0.0012738  | 0.0012738  | 0.0012738  |   0.0 |  0.02
Output  | 0.0052092  | 0.0052092  | 0.0052092  |   0.0 |  0.09
Modify  | 0.017856   | 0.017856   | 0.017856   |   0.0 |  0.31
Other   |            | 0.003293   |            |       |  0.06

Nlocal:    693 ave 693 max 693 min
Histogram: 1 0 0 0 0 0 0 0 0 0
Nghost:    84 ave 84 max 84 min
Histogram: 1 0 0 0 0 0 0 0 0 0
Neighs:    0 ave 0 max 0 min
Histogram: 1 0 0 0 0 0 0 0 0 0
FullNghs:  103584 ave 103584 max 103584 min
Histogram: 1 0 0 0 0 0 0 0 0 0

Total # of neighbors = 103584
Ave neighs/atom = 149.472
Ave special neighs/atom = 0
Neighbor list builds = 13
Dangerous builds = 0
next		a
jump 		input.lammps loop
displace_atoms	topgroup move 0 0 0.1
displace_atoms	botgroup move 0 0 -0.1
run		1000
Per MPI rank memory allocation (min/avg/max) = 8.128 | 8.128 | 8.128 Mbytes
Step Temp E_pair E_mol TotEng Press 
  101000    513.33321   -4888.2753            0   -4875.5354   -378.16747 
  101500    476.35229    -4890.492            0   -4878.6699   -54.282658 
  102000    480.35105   -4891.6915            0   -4879.7701   -320.76337 
Loop time of 5.71154 on 1 procs for 1000 steps with 693 atoms

Performance: 7.564 ns/day, 3.173 hours/ns, 175.084 timesteps/s
99.7% CPU use with 1 MPI tasks x no OpenMP threads

MPI task timing breakdown:
Section |  min time  |  avg time  |  max time  |%varavg| %total
---------------------------------------------------------------
Pair    | 5.661      | 5.661      | 5.661      |   0.0 | 99.11
Bond    | 0.00020275 | 0.00020275 | 0.00020275 |   0.0 |  0.00
Neigh   | 0.022591   | 0.022591   | 0.022591   |   0.0 |  0.40
Comm    | 0.0013422  | 0.0013422  | 0.0013422  |   0.0 |  0.02
Output  | 0.0051875  | 0.0051875  | 0.0051875  |   0.0 |  0.09
Modify  | 0.017903   | 0.017903   | 0.017903   |   0.0 |  0.31
Other   |            | 0.003325   |            |       |  0.06

Nlocal:    693 ave 693 max 693 min
Histogram: 1 0 0 0 0 0 0 0 0 0
Nghost:    86 ave 86 max 86 min
Histogram: 1 0 0 0 0 0 0 0 0 0
Neighs:    0 ave 0 max 0 min
Histogram: 1 0 0 0 0 0 0 0 0 0
FullNghs:  102998 ave 102998 max 102998 min
Histogram: 1 0 0 0 0 0 0 0 0 0

Total # of neighbors = 102998
Ave neighs/atom = 148.626
Ave special neighs/atom = 0
Neighbor list builds = 13
Dangerous builds = 0
next		a
jump 		input.lammps loop
displace_atoms	topgroup move 0 0 0.1
displace_atoms	botgroup move 0 0 -0.1
run		1000
Per MPI rank memory allocation (min/avg/max) = 8.128 | 8.128 | 8.128 Mbytes
Step Temp E_pair E_mol TotEng Press 
  102000    480.35105    -4887.751            0   -4875.8297   -772.72724 
  102500    525.43252   -4891.5632            0    -4878.523   -48.377433 
  103000    461.94496   -4890.4123            0   -4878.9477    221.98753 
Loop time of 5.72611 on 1 procs for 1000 steps with 693 atoms

Performance: 7.544 ns/day, 3.181 hours/ns, 174.639 timesteps/s
99.8% CPU use with 1 MPI tasks x no OpenMP threads

MPI task timing breakdown:
Section |  min time  |  avg time  |  max time  |%varavg| %total
---------------------------------------------------------------
Pair    | 5.6756     | 5.6756     | 5.6756     |   0.0 | 99.12
Bond    | 0.00018924 | 0.00018924 | 0.00018924 |   0.0 |  0.00
Neigh   | 0.022514   | 0.022514   | 0.022514   |   0.0 |  0.39
Comm    | 0.0012355  | 0.0012355  | 0.0012355  |   0.0 |  0.02
Output  | 0.0052319  | 0.0052319  | 0.0052319  |   0.0 |  0.09
Modify  | 0.018092   | 0.018092   | 0.018092   |   0.0 |  0.32
Other   |            | 0.003269   |            |       |  0.06

Nlocal:    693 ave 693 max 693 min
Histogram: 1 0 0 0 0 0 0 0 0 0
Nghost:    88 ave 88 max 88 min
Histogram: 1 0 0 0 0 0 0 0 0 0
Neighs:    0 ave 0 max 0 min
Histogram: 1 0 0 0 0 0 0 0 0 0
FullNghs:  103406 ave 103406 max 103406 min
Histogram: 1 0 0 0 0 0 0 0 0 0

Total # of neighbors = 103406
Ave neighs/atom = 149.215
Ave special neighs/atom = 0
Neighbor list builds = 13
Dangerous builds = 0
next		a
jump 		input.lammps loop
displace_atoms	topgroup move 0 0 0.1
displace_atoms	botgroup move 0 0 -0.1
run		1000
Per MPI rank memory allocation (min/avg/max) = 8.128 | 8.128 | 8.128 Mbytes
Step Temp E_pair E_mol TotEng Press 
  103000    461.94496    -4886.734            0   -4875.2694   -239.81428 
  103500    507.85326   -4890.7946            0   -4878.1907   -420.82292 
  104000    506.39103   -4890.9478            0   -4878.3802   -266.83543 
Loop time of 5.7319 on 1 procs for 1000 steps with 693 atoms

Performance: 7.537 ns/day, 3.184 hours/ns, 174.462 timesteps/s
99.7% CPU use with 1 MPI tasks x no OpenMP threads

MPI task timing breakdown:
Section |  min time  |  avg time  |  max time  |%varavg| %total
---------------------------------------------------------------
Pair    | 5.6811     | 5.6811     | 5.6811     |   0.0 | 99.11
Bond    | 0.00018936 | 0.00018936 | 0.00018936 |   0.0 |  0.00
Neigh   | 0.022532   | 0.022532   | 0.022532   |   0.0 |  0.39
Comm    | 0.0011996  | 0.0011996  | 0.0011996  |   0.0 |  0.02
Output  | 0.0052483  | 0.0052483  | 0.0052483  |   0.0 |  0.09
Modify  | 0.018191   | 0.018191   | 0.018191   |   0.0 |  0.32
Other   |            | 0.003397   |            |       |  0.06

Nlocal:    693 ave 693 max 693 min
Histogram: 1 0 0 0 0 0 0 0 0 0
Nghost:    85 ave 85 max 85 min
Histogram: 1 0 0 0 0 0 0 0 0 0
Neighs:    0 ave 0 max 0 min
Histogram: 1 0 0 0 0 0 0 0 0 0
FullNghs:  103320 ave 103320 max 103320 min
Histogram: 1 0 0 0 0 0 0 0 0 0

Total # of neighbors = 103320
Ave neighs/atom = 149.091
Ave special neighs/atom = 0
Neighbor list builds = 13
Dangerous builds = 0
next		a
jump 		input.lammps loop
displace_atoms	topgroup move 0 0 0.1
displace_atoms	botgroup move 0 0 -0.1
run		1000
Per MPI rank memory allocation (min/avg/max) = 8.128 | 8.128 | 8.128 Mbytes
Step Temp E_pair E_mol TotEng Press 
  104000    506.39103   -4885.5041            0   -4872.9365   -673.08386 
  104500    507.99911   -4889.9028            0   -4877.2953    75.761672 
  105000    474.04111   -4891.4916            0   -4879.7269   -32.298301 
Loop time of 5.73886 on 1 procs for 1000 steps with 693 atoms

Performance: 7.528 ns/day, 3.188 hours/ns, 174.251 timesteps/s
99.8% CPU use with 1 MPI tasks x no OpenMP threads

MPI task timing breakdown:
Section |  min time  |  avg time  |  max time  |%varavg| %total
---------------------------------------------------------------
Pair    | 5.6881     | 5.6881     | 5.6881     |   0.0 | 99.12
Bond    | 0.00018788 | 0.00018788 | 0.00018788 |   0.0 |  0.00
Neigh   | 0.022832   | 0.022832   | 0.022832   |   0.0 |  0.40
Comm    | 0.0011214  | 0.0011214  | 0.0011214  |   0.0 |  0.02
Output  | 0.0052184  | 0.0052184  | 0.0052184  |   0.0 |  0.09
Modify  | 0.01815    | 0.01815    | 0.01815    |   0.0 |  0.32
Other   |            | 0.00322    |            |       |  0.06

Nlocal:    693 ave 693 max 693 min
Histogram: 1 0 0 0 0 0 0 0 0 0
Nghost:    83 ave 83 max 83 min
Histogram: 1 0 0 0 0 0 0 0 0 0
Neighs:    0 ave 0 max 0 min
Histogram: 1 0 0 0 0 0 0 0 0 0
FullNghs:  103376 ave 103376 max 103376 min
Histogram: 1 0 0 0 0 0 0 0 0 0

Total # of neighbors = 103376
Ave neighs/atom = 149.172
Ave special neighs/atom = 0
Neighbor list builds = 13
Dangerous builds = 0
next		a
jump 		input.lammps loop






Total wall time: 0:10:17
