LAMMPS data file via write_data, version 29 Sep 2021, timestep = 1210000

5000 atoms
1 atom types

-20 20 xlo xhi
-20 20 ylo yhi
-20 20 zlo zhi

Masses

1 12.0107

Atoms # full

992 0 1 0 -19.122773738569485 -16.225912151783085 -17.48098153162308 0 0 0
482 0 1 0 -16.930034335940032 -14.179398316122763 -14.09919019203527 0 0 1
684 0 1 0 -16.862779246843598 -13.947773744780026 -15.543238807649153 0 0 1
4888 0 1 0 -17.596733857199627 -18.087639924659783 -14.011879985037488 1 1 0
1225 0 1 0 -17.13552867702038 -15.004874220790938 -16.42489723846619 1 0 1
3178 0 1 0 -18.732328721574223 -15.946647501672052 -14.004325331571819 1 0 1
4864 0 1 0 -18.113522740001546 -18.15984240763477 -15.355219880530118 1 1 1
3795 0 1 0 -17.015173541527403 -17.399503226519258 -17.353307106209105 1 0 1
3745 0 1 0 -17.164964601359756 -18.499819494004385 -16.39034665593916 1 1 0
4211 0 1 0 -17.719279460153746 -16.147985245621875 -17.041604104038015 1 1 0
2886 0 1 0 -16.353185935707852 -18.9065316668676 -19.161741231475805 0 0 0
1479 0 1 0 -18.210227324656287 -14.658946883847676 -13.709707733287575 0 1 0
4140 0 1 0 -16.96122838309885 -17.68223131090131 -18.7570610990378 0 0 0
2070 0 1 0 -19.520346812246242 -15.637730631935488 -18.759726676287237 -1 0 1
394 0 1 0 -19.43129418113092 -17.513134440659844 -15.622345084428751 0 0 1
1245 0 1 0 -16.508257560336727 -19.7272128795266 -16.032544155540148 1 0 1
4994 0 1 0 -16.608408634787768 -19.08299156911417 -13.587759823232723 1 1 0
4182 0 1 0 -19.851271278609726 -17.32243012632294 -16.97539075916479 1 0 0
55 0 1 0 -19.886735421553418 -16.49423308311933 -14.732671896378456 0 1 0
442 0 1 0 -18.681687790326222 -15.881641664421455 -19.881191743235394 -1 0 0
2526 0 1 0 -19.01919556654739 -19.604559395113416 -18.73543173155484 1 1 0
400 0 1 0 -17.53796886118197 -16.847124078731728 -19.879114345563885 1 0 0
293 0 1 0 -19.66606656420846 -11.749923923901143 -15.061105794278992 0 0 0
4848 0 1 0 -16.65396877497828 -12.600440047497774 -15.906580883212376 0 1 1
4706 0 1 0 -17.67380337646112 -11.870025695641575 -16.60298804992821 1 1 1
309 0 1 0 -15.716422673131413 -11.587870507437758 -15.456455431591564 0 0 0
990 0 1 0 -16.0571130795968 -10.37012294643729 -16.099077808405273 0 0 1
1738 0 1 0 -15.962536639877467 -9.097163784384028 -15.458411233644059 0 1 0
1000 0 1 0 -16.623403630850596 -8.027083022555564 -16.061514258837594 0 0 1
3188 0 1 0 -17.09601734023683 -10.605058327720682 -16.99651009361364 0 1 1
2851 0 1 0 -15.079930342820559 -9.030442372327046 -14.393220071536325 1 0 1
2954 0 1 0 -15.171154198412898 -11.483641710177448 -14.158291188953525 1 1 0
4080 0 1 0 -14.6841708250763 -7.811419719693477 -13.848967838872863 0 0 0
2605 0 1 0 -17.58498608057744 -8.26717331223404 -17.05512739543897 1 0 0
2132 0 1 0 -18.384366148043586 -7.265969120193393 -17.70436056545553 0 1 1
575 0 1 0 -17.94098043610016 -9.599438272289008 -17.476834064913767 0 0 0
2277 0 1 0 -19.056274264726405 -11.729879026725737 -16.353806131827376 0 1 1
1780 0 1 0 -19.24708814156917 -9.965273898270327 -17.966098980446482 0 1 0
3609 0 1 0 -19.437147252930654 -7.582072802286192 -18.532041186323376 1 0 1
2282 0 1 0 -19.29816400107513 -12.624832411385157 -14.028536144141222 0 1 1
2840 0 1 0 -14.56336714689013 -10.234706541801332 -13.762312521122935 1 0 1
3294 0 1 0 -19.747232905951307 -11.193214355023615 -17.474427919550482 0 0 1
4739 0 1 0 -16.441696532226178 -6.719624815762577 -15.523394989685746 1 0 1
2706 0 1 0 -15.3700314272009 -6.5991661415558704 -14.319050251403665 0 0 -1
2426 0 1 0 -18.987566569309642 -4.816255007415528 -17.947381932913213 0 0 0
681 0 1 0 -18.281788337887416 -5.928208014351611 -17.268329080663193 0 0 1
844 0 1 0 -18.821672030781706 -3.5410240963948865 -17.42899208911092 0 0 1
685 0 1 0 -18.732715011784695 -1.3190333402407894 -18.130845233199995 0 0 1
233 0 1 0 -17.254051522412844 -5.6742045801977685 -16.257657783211492 0 0 0
2361 0 1 0 -17.311533323312954 -4.322429530081438 -15.678560728650627 0 0 1
2298 0 1 0 -16.328946509421176 -1.293732718833425 -15.239012460928684 0 1 1
1981 0 1 0 -17.118371285292657 -1.3764510270486874 -14.02212837911509 0 1 0
1257 0 1 0 -17.024264188937522 -4.298224686775605 -14.326263359786225 0 0 1
3827 0 1 0 -17.697288306217338 -3.219271055758213 -16.463075893922923 0 0 -1
4414 0 1 0 -17.125051946239054 -1.8617603638596372 -16.379041550901288 1 0 1
3986 0 1 0 -17.83745176445834 -0.9027705842312426 -17.095606863283816 1 1 0
2310 0 1 0 -14.917006362403745 -0.6274001909231471 -14.989359235703958 0 0 1
1369 0 1 0 -13.961282366652199 -0.8838681936936916 -13.957974330092982 0 1 0
3049 0 1 0 -19.592178717536868 -2.4118028532825107 -17.937124136128762 1 0 0
3699 0 1 0 -19.273230002086176 -0.22367988164837133 -18.89694848346308 0 0 2
3481 0 1 0 -18.317367973949874 -0.6802581033481492 -13.60860811889381 0 0 1
2383 0 1 0 -15.936037334123125 -4.3048214505881 -13.49897687186881 0 1 0
2970 0 1 0 -15.087190892022736 -5.447007164208055 -13.49608769373607 1 0 0
1539 0 1 0 -13.351309670840765 -2.010895020640706 -13.358541234998222 0 0 0
2641 0 1 0 -1.1859375992207504 -1.1763455312029556 -4.673519282725568 1 1 -1
4560 0 1 0 -3.5824408753924915 -3.0442127480194725 -6.549343325678233 0 0 0
672 0 1 0 -18.04859244634332 -16.9984470877016 -13.297274892722017 0 1 1
3205 0 1 0 -16.00663302921699 -19.23418649388082 -12.199805931152577 0 0 0
4137 0 1 0 -16.191810846727954 -14.203205583937407 -11.710908236673303 1 0 1
3406 0 1 0 -14.923788755727413 -14.432498997639986 -11.087835281904084 0 0 1
2130 0 1 0 -16.192754793672172 -16.86048734024576 -8.721480030453586 0 1 1
3906 0 1 0 -18.25136630078325 -16.993721371877484 -11.925018684852649 1 1 0
2234 0 1 0 -15.28171588132672 -18.213183390447803 -11.458655903399857 0 1 0
2008 0 1 0 -17.091422395687715 -16.411198886282907 -11.070596231338795 0 1 0
4116 0 1 0 -16.49702500933049 -17.04717795411125 -7.375469494618561 1 0 0
4065 0 1 0 -17.26720197126601 -16.970184273945215 -9.642415408734 1 1 0
470 0 1 0 -18.577661510356624 -16.831959323557772 -9.22475188823786 0 0 0
3062 0 1 0 -14.993716600549188 -16.029377743119355 -8.824582656934751 1 0 1
1412 0 1 0 -18.672381335171416 -15.573272804262562 -8.583665727032882 0 0 0
1261 0 1 0 -14.704593702474927 -15.770137625664168 -10.312398953852872 0 0 1
3829 0 1 0 -15.586017335118768 -16.872655159469236 -11.224627202143369 0 1 0
622 0 1 0 -14.174442461830271 -15.69158066557214 -7.569773046794263 0 0 1
1854 0 1 0 -19.14616334378547 -14.526691015141111 -9.353868642604047 0 0 0
4020 0 1 0 -14.119960708742328 -18.563268162899465 -10.592257969871639 0 1 0
3653 0 1 0 -17.298085853438018 -14.835750080324424 -11.040760615106835 1 0 0
760 0 1 0 -18.599171917461256 -14.301466158895915 -10.680905271681349 1 0 1
4762 0 1 0 -18.33324190687256 -15.603691152178305 -7.20874378266867 1 1 1
1994 0 1 0 -19.49134247332263 -13.989355054291273 -11.778546955212935 0 0 0
4375 0 1 0 -19.604248854966304 -17.495778273557562 -10.039872715934408 1 1 0
837 0 1 0 -19.564337668227534 -17.07183106111604 -11.404451445186533 0 0 1
2903 0 1 0 -13.845757729995226 -13.582746608282532 -11.367604193019893 1 0 0
3599 0 1 0 -16.105744354840187 -13.625051001902872 -13.11749737815235 1 1 1
3472 0 1 0 -18.98326360365797 -13.669390451671203 -13.128536732452812 0 0 0
3559 0 1 0 -15.445197295182501 -19.21380359361913 -6.870776409247984 0 0 1
1842 0 1 0 -14.149538701423172 -19.809725764616264 -9.88194260029961 0 1 0
869 0 1 0 -17.029497153514757 -15.889736979344375 -6.769735608120666 0 1 0
2904 0 1 0 -13.11194488587505 -17.55115699164181 -10.235464137580337 0 0 0
3870 0 1 0 -13.207337348211574 -16.136251972716405 -10.488761165350166 1 1 0
295 0 1 0 -12.903204155309364 -16.329592323682615 -7.328649021791039 0 0 0
2126 0 1 0 -11.966544785636785 -19.042096950329416 -8.431138317160485 0 1 1
4751 0 1 0 -9.235126236628089 -17.948633404155206 -7.847564072798115 1 1 0
4427 0 1 0 -9.517697204078727 -16.701400562826723 -8.517948201410208 1 1 1
1381 0 1 0 -10.785449254105524 -16.118097209267386 -8.800344297680377 0 1 0
4079 0 1 0 -12.203846939986368 -15.054557962771275 -10.472507342276165 0 1 1
374 0 1 0 -10.98911770223305 -15.107818042692605 -9.780971208058356 0 0 0
4553 0 1 0 -9.975863357114118 -14.068991612713548 -9.742121851250817 0 1 1
4210 0 1 0 -8.426937413290398 -15.932103905910811 -8.940768925697254 0 0 0
3047 0 1 0 -12.013400214584 -16.685396330105576 -8.401818313144114 0 0 0
4730 0 1 0 -12.369232447797165 -17.87690912447548 -9.106929958815643 1 1 0
59 0 1 0 -8.790538069827736 -14.540521044119703 -9.163120479181275 -1 1 1
1009 0 1 0 -7.937595693217544 -13.772662561417427 -8.418064256590151 0 0 0
3400 0 1 0 -12.558915275708848 -13.67862944296129 -10.855153041014624 1 0 1
1376 0 1 0 -6.9122002454362335 -19.00787974211026 -7.680910805708039 0 1 0
2463 0 1 0 -8.263907070159968 -19.049633531494045 -8.080232079733243 0 1 0
1094 0 1 0 -11.462058907865217 -18.668093543686236 -7.130418268175724 0 0 0
1755 0 1 0 -7.029157004525601 -15.97883074738885 -8.390775563638682 0 1 0
4135 0 1 0 -6.958295054679981 -14.644780047798548 -7.859155953993167 0 1 0
5000 0 1 0 -10.160105165060765 -18.29263562871622 -6.745019690425705 1 1 0
1276 0 1 0 -0.8292666805751993 -19.76341271107464 -10.249943897939973 0 0 1
4160 0 1 0 -5.865990079350504 -18.205788641239458 -8.173089418990255 0 1 0
951 0 1 0 -5.921592559104402 -16.751693715353863 -8.067877901915276 0 0 1
2715 0 1 0 -1.5662158941988005 -19.1173110982624 -9.056459007943419 0 1 0
466 0 1 0 -1.1338131044986142 -17.236243854508174 -7.194353534718615 0 0 1
3218 0 1 0 -0.7484259141162682 -18.14166366313343 -8.408098246548004 0 0 0
1834 0 1 0 -4.559223803249072 -18.788302061480007 -7.931064708047493 0 1 0
2672 0 1 0 -4.818079344237579 -16.112170434618097 -7.410210126785678 0 0 1
3264 0 1 0 -3.573480581937073 -16.791102572776712 -7.1871438069590665 0 1 0
2569 0 1 0 -2.3381696478866925 -16.357617268444535 -7.019621444442276 0 0 0
23 0 1 0 -3.772907291371882 -18.130236832688418 -6.937329824545641 0 0 0
60 0 1 0 -0.245360839225757 -15.869813770923956 -7.4060831100232445 0 1 0
3192 0 1 0 -0.3245905532225604 -19.345826964338002 -11.44594514173952 1 0 1
300 0 1 0 -6.251954745356534 -14.334109059037115 -6.710982248078878 -1 0 0
3944 0 1 0 -0.8218769328166299 -14.759812227396147 -6.723230677339891 1 1 0
396 0 1 0 -15.203626482931032 -12.549651595730731 -13.187641549368385 0 0 0
4737 0 1 0 -14.109336460544123 -12.513105579862478 -12.237349655600735 1 0 1
3059 0 1 0 -13.569720033810789 -7.790634237443556 -12.917735207665944 1 0 0
138 0 1 0 -13.5712196737732 -10.161893137048269 -12.825643182354852 0 0 0
1395 0 1 0 -13.139235703444603 -11.468114730459616 -12.208249698210636 0 1 0
561 0 1 0 -12.902359350488629 -8.9841347165014 -12.48189261994734 0 0 0
1766 0 1 0 -10.328172118894367 -12.718721136814743 -10.064008966777624 0 0 0
2661 0 1 0 -11.587535949217706 -12.660649286845672 -10.73955254550863 1 0 0
3968 0 1 0 -11.983390068611307 -11.450737453087722 -11.356123632629018 1 1 0
3606 0 1 0 -11.88697797037654 -9.021967046280523 -11.469297881162424 0 0 0
3490 0 1 0 -11.300668578115074 -7.761810271401327 -11.079631143301343 1 0 1
504 0 1 0 -11.293764343450391 -10.228783941885323 -11.040519851593318 0 0 0
1965 0 1 0 -8.069032570174373 -9.025244399201606 -9.496004410088679 0 1 0
136 0 1 0 -10.01271229273643 -7.76086433413801 -10.356312387044813 0 0 0
275 0 1 0 -10.061699702954428 -10.292693892469362 -10.232920133289314 0 -1 0
4016 0 1 0 -9.589334236130801 -11.51837472425921 -9.664641305857542 1 1 0
1263 0 1 0 -9.36969923646904 -8.99541417399089 -10.027859843008725 0 0 1
1108 0 1 0 -8.531726820544778 -11.422253205577862 -8.70637053172229 0 0 0
2707 0 1 0 -7.857281526755401 -10.117917785128572 -8.501171897373764 1 1 0
4225 0 1 0 -8.026442863583583 -12.480889261663238 -7.965578612452724 0 1 0
1480 0 1 0 -7.0719233571440565 -9.911948720314399 -7.339624726301122 0 0 0
982 0 1 0 -6.95630669304629 -8.185555708243422 -9.807887925746975 0 -1 1
609 0 1 0 -7.11477580231164 -6.8316840434879795 -10.208385761126321 0 0 1
253 0 1 0 -7.354805789437904 -12.225298511697684 -6.755393617867002 0 -1 0
1481 0 1 0 -6.200358796945329 -8.779938177500481 -7.119586487342299 0 0 -1
2643 0 1 0 -5.638151803529756 -8.621960687806418 -9.478538329631304 0 0 0
1209 0 1 0 -5.136209942289961 -8.522566101012925 -8.148868800140967 0 0 0
3726 0 1 0 -2.8168717242911105 -7.25569634620497 -7.848993561651016 1 0 1
2710 0 1 0 -3.726118855048874 -8.394930619209013 -7.6479857311027555 0 0 0
4643 0 1 0 -1.5727058981342577 -7.182571177160941 -8.470767013304076 1 0 0
1661 0 1 0 -0.5104230043796582 -9.162316340668903 -7.4325069682933735 0 0 0
2948 0 1 0 -2.9900209351675358 -9.462141554588383 -7.106411298892462 0 0 0
2237 0 1 0 -0.3802521453808733 -7.797617629180847 -7.865466348824473 0 1 1
340 0 1 0 -2.400585298561494 -6.699838702160808 -11.480080880051739 0 0 0
4453 0 1 0 -14.289115632581865 -0.25815086229980516 -8.240171654936047 1 0 1
1073 0 1 0 -15.418017907879971 -0.43268047549975475 -7.398965887244241 0 0 1
4313 0 1 0 -15.526071141283289 -3.0900402026318448 -12.919384572912959 1 1 0
3460 0 1 0 -14.1509438544857 -2.9830647463737363 -12.725447331859579 0 0 0
1177 0 1 0 -16.374221370402168 -1.87631418675677 -12.908067615183091 0 0 0
85 0 1 0 -18.852943975792993 -0.8598652519460845 -12.296495463357761 0 0 0
3715 0 1 0 -17.844769167451762 -0.8235174084447598 -11.255756192942812 1 0 1
4138 0 1 0 -16.52176559742637 -0.9080566580081528 -11.804389823454038 1 0 0
4014 0 1 0 -13.93094692515504 -5.352742298070754 -12.656140633486277 0 0 0
4066 0 1 0 -17.808412225144785 -0.4857277877027731 -7.0680038340313125 1 0 0
952 0 1 0 -19.38846108270496 -0.4847472250264604 -9.472949471832145 0 0 1
4856 0 1 0 -18.095239871061615 -0.4299418359984471 -9.994399211952572 1 1 1
3380 0 1 0 -16.684567974196344 -0.35083243412154885 -7.958362042690782 1 0 1
1322 0 1 0 -13.462442231219798 -4.1081724719387545 -12.159407821349976 0 1 0
3017 0 1 0 -13.112619474820661 -6.497938883741653 -12.347785137511845 0 -1 0
3098 0 1 0 -12.055248644837253 -6.596582375286638 -11.407868202195656 1 0 0
3552 0 1 0 -9.539531875329548 -6.39286757539933 -9.99804587303554 0 0 0
2203 0 1 0 -13.025585805862326 -0.5969470502228205 -7.631152082445096 0 0 1
4724 0 1 0 -8.180392219174667 -6.054737226010046 -9.633154569357988 0 1 1
218 0 1 0 -12.04206595675189 -1.8074428258523143 -12.74625162165878 0 0 0
287 0 1 0 -11.91981271554023 -1.6069584040058633 -11.350831988527927 0 0 0
3495 0 1 0 -11.650426200844516 -5.328585761858136 -10.82566788551706 1 0 1
90 0 1 0 -12.41381270337213 -4.127684324235066 -11.141997092289714 0 0 0
4201 0 1 0 -7.411278042292917 -0.9372799400727786 -7.509841849855712 1 0 -1
511 0 1 0 -11.869068975123163 -2.878718475685608 -10.616535574273017 0 0 0
450 0 1 0 -11.747744846725707 -0.809264742708807 -8.332930099811225 0 0 0
3019 0 1 0 -10.102730830494556 -4.131530576021068 -9.31975088062116 0 0 0
3785 0 1 0 -10.95228286628393 -2.0152839313699773 -8.411247315733064 0 -1 0
574 0 1 0 -8.943253483537648 -4.159466636222239 -8.429037007927962 0 0 0
1447 0 1 0 -8.61375582735883 -3.0456433317535243 -7.428365966596955 0 0 0
867 0 1 0 -10.450711340941304 -5.303712839826715 -10.083673482063743 0 0 0
4244 0 1 0 -7.879764303559254 -5.094429774587674 -8.645089838900127 0 0 0
3779 0 1 0 -9.972828722131661 -2.1159167428998717 -7.459963262706699 1 0 0
2762 0 1 0 -11.00424669292554 -3.0044280695588936 -9.462357723233293 1 0 0
1238 0 1 0 -7.402633705484109 -2.1987119519840563 -8.006382821950396 0 0 0
3731 0 1 0 -12.305025050042223 -0.2795773769694861 -10.910020575513041 1 0 1
3970 0 1 0 -9.681942853528591 -0.905633390453646 -6.868909291477477 1 0 1
4310 0 1 0 -6.708105480017461 -4.981673771634931 -7.8109578106298665 0 1 0
318 0 1 0 -1.1418547339110736 -6.457280444568054 -10.957097217325185 0 0 0
776 0 1 0 -3.6738190222093943 -6.1473190740010155 -11.535497885475944 0 0 1
2418 0 1 0 -2.0914643435761673 -0.27431147154104996 -8.577448648285593 -1 0 0
3086 0 1 0 -4.525593347407804 -0.32501385906792063 -8.562221444951861 0 0 0
3387 0 1 0 -1.16361363536654 -6.306564626502035 -9.547868455734111 1 -1 1
285 0 1 0 -6.297822077351909 -2.781884841011151 -8.54149040225459 0 0 0
1985 0 1 0 -0.3752962505269775 -1.8309939029373765 -10.840366786442573 0 0 0
4554 0 1 0 -0.35398717683714054 -5.097128715325565 -9.183169124313103 1 1 1
3561 0 1 0 -6.083942440166247 -6.185639906469944 -10.933846020406559 1 0 1
933 0 1 0 -4.881721875580127 -5.5521650200393005 -11.178554028553986 0 0 1
1282 0 1 0 -3.2804242941024446 -5.99120536455301 -7.2440841088397026 0 0 -1
2307 0 1 0 -5.7245830164051705 -3.9168862303339793 -7.861058798728634 1 1 1
917 0 1 0 -5.537932677503809 -2.258589221396016 -9.675138121559447 0 0 1
4545 0 1 0 -5.603434923938254 -3.1304818611344376 -10.785683299184733 1 1 1
4836 0 1 0 -4.709995413493949 -4.203055559505876 -10.858287786583524 0 0 1
812 0 1 0 -4.331466418026151 -3.8412982489586303 -7.409151448322201 0 0 0
4428 0 1 0 -4.427992853713302 -1.4042752570672978 -9.46334188316006 1 0 1
4107 0 1 0 -2.706483828745345 -2.662858885247505 -10.723552292706275 0 0 0
24 0 1 0 -2.7801237224729776 -4.420159444987477 -9.247332194045962 0 0 0
4880 0 1 0 -3.417772468662828 -4.847822835999503 -8.03865790012486 0 0 0
1875 0 1 0 -3.410349231771591 -3.8599064657574207 -10.396333639715737 0 1 0
2162 0 1 0 -3.2442752255263616 -1.4551165081544128 -10.277587309087924 0 0 1
1913 0 1 0 -1.3561577111238907 -2.9193548912125817 -10.44929468756266 0 0 0
669 0 1 0 -0.9791286752522286 -3.0134885881454556 -7.9292989773887514 0 0 1
3631 0 1 0 -1.214562963227723 -3.8632056984514422 -9.165165486181971 0 -1 1
4663 0 1 0 -2.2559022118928906 -0.5059124493102103 -10.004247798180323 1 0 1
1358 0 1 0 -0.9545196362375605 -0.506628552397917 -10.658002718218622 0 0 0
1120 0 1 0 -0.7274819730950253 -0.44172906005634366 -8.197507828799198 -1 0 0
1399 0 1 0 -0.23274288922135372 -1.7896840192674652 -8.06653207934835 0 0 0
2438 0 1 0 -1.1275502546605385 -3.7571060741443807 -6.749088715453704 -1 0 0
1240 0 1 0 -16.441601380272335 -18.215823056515365 -6.58044215342411 0 0 1
3072 0 1 0 -15.022692318248497 -19.86167821252309 -1.871369450716932 1 0 0
2617 0 1 0 -19.409471015455704 -16.082525137970794 -6.394676651738898 1 0 0
120 0 1 0 -14.738740520662597 -15.060010754497709 -6.341579231869512 0 0 0
3452 0 1 0 -19.5361456457465 -17.43144860827493 -5.81000065146426 1 0 0
3281 0 1 0 -14.55227349458357 -19.398939190927734 -5.704557256332802 0 1 0
393 0 1 0 -16.1319196459382 -15.14764618165107 -5.951761982107021 0 0 0
612 0 1 0 -17.209089136318727 -18.079986749806093 -5.371094402304474 0 0 1
1034 0 1 0 -18.842887682209636 -14.429863599141507 -1.883589732909525 0 0 0
1478 0 1 0 -18.384069770377995 -16.76198340450365 -1.136406848443594 0 0 0
3139 0 1 0 -18.588713459833098 -18.439505917873174 -5.391517494833577 0 0 0
1828 0 1 0 -17.036429554266313 -16.615414665675544 -3.3006722747411517 0 0 0
1186 0 1 0 -17.01263433113798 -15.227976470207956 -3.516212603785975 0 1 0
1665 0 1 0 -17.46787368931976 -14.366563670277722 -2.4055457608001785 0 1 0
956 0 1 0 -16.59639825586382 -17.59237461104151 -4.148758243175733 0 0 0
3629 0 1 0 -15.50577488949673 -18.614073743081715 -2.3035918778498603 1 0 0
2760 0 1 0 -17.247236475484033 -17.05720788566996 -1.9138471953635294 0 0 0
1454 0 1 0 -16.200849277408636 -17.827048702868943 -1.4266713684806893 0 1 0
3048 0 1 0 -15.611445187383836 -18.468344818210657 -3.6449163449905377 0 0 -1
709 0 1 0 -19.318167072862927 -15.743410250342295 -1.5428275797386308 0 0 0
1730 0 1 0 -16.477425037995896 -14.590669663435015 -4.681894456368109 0 1 0
1774 0 1 0 -13.85329182631 -14.477386295521008 -5.324818491083429 0 0 -1
2949 0 1 0 -15.230660143615681 -19.546722718175328 -4.444928056163711 0 0 0
307 0 1 0 -18.811327639359064 -19.820157370636345 -4.875700076179398 0 1 0
2337 0 1 0 -16.352498747313593 -13.541402474596142 -1.783774918511908 0 0 0
4597 0 1 0 -14.21897011849602 -19.832812012328368 -0.6913450050318156 0 0 0
4644 0 1 0 -14.411232161380156 -13.489067336841984 -4.462073641096272 1 0 0
1521 0 1 0 -1.509841900521377 -19.765386687188684 -4.423291811435071 0 0 0
4562 0 1 0 -15.705893019819205 -17.881251699737042 -0.0867439706519058 1 1 1
3644 0 1 0 -12.450139170181862 -18.360383091868783 -6.164953286860687 0 0 1
2331 0 1 0 -11.622860480601803 -16.86516586798881 -0.36760490853839656 0 1 0
4347 0 1 0 -13.100870974091093 -19.47123025102587 -5.575095216655347 0 1 0
1292 0 1 0 -8.80578106277929 -19.461385813336836 -5.104615180216117 0 0 0
1311 0 1 0 -10.944419915545133 -19.64802040781365 -0.7479087298357543 0 1 0
3649 0 1 0 -10.345128654757142 -14.921188026726158 -0.7323626840186239 1 0 0
1631 0 1 0 -7.67497605213748 -14.52475818655745 -1.9524295908281153 0 1 0
332 0 1 0 -12.467396931542405 -14.72630821982741 -4.828872072404509 0 0 0
3348 0 1 0 -12.557444045370584 -16.853590655932994 -5.998566901361776 0 0 0
3236 0 1 0 -9.76457117344767 -18.469389653172303 -5.367911242878949 0 0 0
2774 0 1 0 -11.297766735122446 -17.33934794877678 -1.6538975513084153 0 0 -1
4388 0 1 0 -10.36589980276844 -15.123153350260882 -2.146737121689345 0 1 1
3554 0 1 0 -12.043798691036832 -16.060295730287002 -4.884533310483527 0 0 0
3788 0 1 0 -11.187238656319883 -19.02974796947258 -3.312632469141077 1 0 1
4845 0 1 0 -11.10225179982132 -16.729543245825873 -4.001667971768627 1 0 0
3225 0 1 0 -10.923869612295382 -16.34193258091761 -2.6321895036503866 0 0 1
2887 0 1 0 -10.666904576416355 -18.079109648624172 -4.234312726767333 1 0 0
1210 0 1 0 -11.213927664641085 -18.758425161407338 -1.876868456767032 0 0 0
654 0 1 0 -9.874032537807464 -14.04863869496923 -3.003890575170787 0 0 1
569 0 1 0 -8.468744049857124 -13.924951801045383 -2.98339852788311 0 0 0
3587 0 1 0 -8.032474456407947 -13.996390755359803 -0.6959323687779493 0 0 0
2860 0 1 0 -12.141664942506312 -13.580255737190376 -3.8321361050704943 1 0 0
3742 0 1 0 -11.463572120236908 -15.500923426048724 -0.06605346630588681 0 0 0
2283 0 1 0 -7.869670136471407 -0.031340074103657904 -4.453391019180165 0 1 0
2739 0 1 0 -6.735120674494397 -13.264576459739484 -5.962182185196717 0 0 0
1337 0 1 0 -6.566414458770708 -19.816687140565712 -6.513756241951788 0 0 0
3020 0 1 0 -2.103642636230178 -15.129130374931087 -6.341421669899726 0 0 0
2401 0 1 0 -5.065045852921508 -15.050320006468725 -6.467915637764181 0 1 1
2627 0 1 0 -6.352586505810856 -14.832867725201867 -2.324980874607701 0 0 0
3967 0 1 0 -3.412086108306352 -16.164285580218053 -0.3974010530863807 0 1 0
679 0 1 0 -4.531204470575863 -19.52276864401263 -5.0892270947441665 0 0 1
163 0 1 0 -0.729673921053471 -15.936638650608085 -2.0359211352013284 0 0 0
2979 0 1 0 -3.3814434578154464 -18.764329550634272 -5.683620551811515 0 0 0
8 0 1 0 -0.9476014476409846 -18.08994046374863 -5.944296307432081 0 0 1
2802 0 1 0 -2.8982856035263453 -14.557748632025046 -5.300704687211417 0 0 0
2173 0 1 0 -4.953581837782774 -15.332688006122758 -4.076452836816191 0 1 0
975 0 1 0 -4.842800960566915 -19.201749666548896 -3.6907721567697624 0 0 0
1767 0 1 0 -2.667448257254578 -17.143967820043102 -1.1394527695610999 0 0 -1
4471 0 1 0 -4.268223660943764 -14.96981681828248 -5.266633178359649 0 1 0
3119 0 1 0 -4.74918938405874 -16.581644395370397 -3.2017533708333477 0 0 1
3214 0 1 0 -3.4823015860936275 -18.20945826979257 -1.81790619243697 1 0 0
3070 0 1 0 -4.345944356875145 -17.96095332885214 -2.986514384361039 0 0 0
3926 0 1 0 -1.2745765318487927 -16.793177277969047 -1.106108985598874 0 1 -1
1038 0 1 0 -5.10661901643745 -15.61730415992464 -2.077381330543137 -1 0 1
3398 0 1 0 -2.0095345120061694 -18.786260061032966 -5.309140652126886 0 0 1
1576 0 1 0 -4.033193105509278 -15.192157452017955 -1.2501321151512523 0 1 0
498 0 1 0 -5.914036190732497 -14.38623211747412 -3.6551932031300245 0 0 0
505 0 1 0 -3.733375959845725 -13.715690720797117 -1.3677695562446965 0 0 0
2318 0 1 0 -3.7447058074235446 -19.4208429696338 -1.092599043368831 0 1 0
4341 0 1 0 -0.5143728503652163 -13.47606900247409 -2.696489457130145 0 0 0
568 0 1 0 -0.4264554840025321 -13.521942809551765 -6.2646794724825625 0 0 0
2684 0 1 0 -2.3855934277984123 -13.343594494863796 -4.736652781960398 0 0 0
1301 0 1 0 -0.08072515994458489 -14.672715561531726 -2.040088718499498 0 1 0
3042 0 1 0 -15.788627297378008 -13.37387255670858 -4.425810584279471 1 0 0
3611 0 1 0 -14.98698107162533 -13.227285344529975 -1.2264791251559244 1 0 0
4692 0 1 0 -19.911893683281257 -8.036949605499238 -1.7564785033492678 1 1 0
4172 0 1 0 -13.496169285012451 -13.125874775581401 -3.4247269292541556 1 1 0
4770 0 1 0 -13.840656690505572 -7.461827992667998 -0.475003827584039 0 0 0
3952 0 1 0 -17.48519090253392 -8.111647894675185 -1.270454987880582 1 0 -1
2723 0 1 0 -19.140865093186964 -11.877575851059467 -1.5019085885916612 1 0 0
386 0 1 0 -16.445495243697444 -10.932568889984001 -4.429384570792595 0 0 0
1232 0 1 0 -17.820605173368563 -8.819694755138897 -4.345591152552006 0 1 0
2718 0 1 0 -18.55479167575711 -8.02694246018561 -2.163264949548164 1 0 -1
1765 0 1 0 -17.201519416961137 -9.95302155044555 -3.709332525207721 0 1 0
932 0 1 0 -15.433942555574559 -10.478166704056017 -5.3242799394394025 0 0 1
3425 0 1 0 -16.55196430208592 -12.26507530854815 -3.9589964972329517 1 0 1
4325 0 1 0 -17.002553007446508 -12.438622466295527 -2.5972710674455803 1 0 0
118 0 1 0 -17.342286459672557 -10.243541360458881 -2.3088102318113073 0 0 0
3667 0 1 0 -17.873644703331113 -11.495496980305608 -2.07789258079932 1 0 0
3450 0 1 0 -14.04909963108218 -12.56388793906471 -2.1084017138066016 0 0 0
3960 0 1 0 -14.14688233706114 -9.945287376692665 -1.6429136073953194 2 0 0
158 0 1 0 -16.702429499677375 -9.327782031802524 -1.4409061272731656 0 0 0
4374 0 1 0 -15.363190153211969 -9.272222902288245 -0.9442913602266141 1 1 0
763 0 1 0 -18.067669723717273 -7.632443516583426 -3.48509518654338 1 0 0
1778 0 1 0 -14.192626704396968 -10.012848233995282 -5.383530590753549 0 1 -1
3767 0 1 0 -18.53264231083735 -8.915744826981774 -5.569325300801161 1 1 1
2577 0 1 0 -17.232080322337772 -6.977517978354356 -0.44038624508998947 1 0 0
2340 0 1 0 -19.707354637915433 -13.173126167929475 -1.8240925742978233 0 1 0
2367 0 1 0 -15.087732037933 -8.062972434430405 -0.22584173930644194 0 0 0
1527 0 1 0 -13.40751864377982 -11.339505324616466 -1.566818581952711 0 0 0
1284 0 1 0 -13.410687186323507 -8.913139500577966 -2.3122431737167775 0 0 0
712 0 1 0 -19.78104056838575 -10.843771095735615 -0.668247799696528 0 0 0
3964 0 1 0 -19.706273587831816 -9.04611503747776 -6.240435304652234 1 1 0
2994 0 1 0 -13.334026540751193 -9.227400062728254 -4.706390666617775 0 0 0
1909 0 1 0 -13.201038420316356 -7.671510518680025 -1.7043005901012889 0 1 1
1876 0 1 0 -6.9559588666179195 -10.940693195711145 -6.361568056150448 0 0 1
1250 0 1 0 -9.35512523976471 -9.868896445668987 -0.3956297126317343 0 0 0
1202 0 1 0 -10.886967351945172 -13.060003680081053 -3.386787483040245 0 0 0
177 0 1 0 -9.576537058117461 -11.242755724719798 -0.8669890542697216 0 0 0
2829 0 1 0 -7.75948552650844 -12.80625729535156 -3.5291593581624365 1 0 0
3733 0 1 0 -12.129865145478867 -11.644742044982312 -0.7760805545740056 1 0 0
1124 0 1 0 -12.649674080971895 -9.192836762104317 -3.4878895521349254 0 0 1
4598 0 1 0 -9.091183420663242 -9.689840203905755 -2.793390641124172 1 0 0
3440 0 1 0 -10.797026251782476 -11.63907878773777 -2.9084388311630005 0 0 1
3176 0 1 0 -10.384842270427662 -10.224490153958586 -3.2956864909143913 1 0 1
821 0 1 0 -7.892063551224277 -10.2502312697115 -3.274959015031972 0 0 0
2378 0 1 0 -11.241369077557009 -9.026501717760752 -3.304006437538694 0 1 0
3299 0 1 0 -9.167634094655337 -9.037085832567142 -1.5476576460911908 0 -1 0
4862 0 1 0 -10.843845512150864 -11.575823874600106 -1.4225276556953075 0 0 0
701 0 1 0 -10.913384256463578 -7.847913950538231 -2.5039087875250585 0 0 0
2892 0 1 0 -9.863637910941952 -7.858152496991435 -1.5351973933026144 0 0 0
3034 0 1 0 -7.02471039293074 -9.739684009945847 -4.247238775718721 0 0 0
1054 0 1 0 -7.770599699680271 -11.61449329603824 -2.7895708949997338 0 0 0
1026 0 1 0 -8.293970943930669 -11.771774029612677 -1.4667806848428029 0 0 0
1762 0 1 0 -7.490904937616681 -12.62584654790075 -0.5896262338030097 0 1 0
22 0 1 0 -12.040493778033445 -7.014226720876296 -2.183825431635145 1 0 0
704 0 1 0 -9.569568010767817 -6.808406828335936 -0.5566073158416289 0 0 1
2416 0 1 0 -1.6690023184466478 -9.464129293733695 -6.535727485959104 0 0 1
3719 0 1 0 -4.120576285253684 -13.018942186139112 -0.11416879723690371 0 0 1
2220 0 1 0 -0.9760707862171628 -13.100650728837383 -5.025469633469536 0 0 0
518 0 1 0 -6.45199046357856 -8.517783558668393 -4.6133750392160255 0 -1 0
687 0 1 0 -6.483554426349194 -10.777643114485036 -5.026692890533265 0 0 1
2099 0 1 0 -5.096988304750891 -11.962341340238375 -0.20165817518506668 0 0 0
2510 0 1 0 -0.2785876325126326 -10.194923943731172 -4.674359094551497 0 0 0
2667 0 1 0 -6.300887629565247 -8.006574271967875 -5.987079987890257 0 0 0
1008 0 1 0 -6.464322236625504 -13.096755047030058 -4.367273102602063 0 0 0
3362 0 1 0 -4.7580637590789685 -10.790023195001726 -0.8162903102601556 1 1 0
2399 0 1 0 -2.911279127260652 -12.942696249174098 -2.377020783491181 0 0 0
1022 0 1 0 -3.7987062792774373 -7.325435681707545 -1.6891248374205219 0 0 0
3112 0 1 0 -4.170307889021088 -8.667624486880454 -1.8736980045438496 0 0 0
808 0 1 0 -4.250642241011656 -9.514885458191685 -0.7603777297954188 -1 0 0
137 0 1 0 -0.9833736731628372 -11.34231633174792 -1.5469680128823402 -1 0 0
842 0 1 0 -5.5737055949984935 -11.783314771478265 -4.4453045631690795 0 0 1
2241 0 1 0 -5.4623295103865335 -8.009838064695456 -3.7678155760954497 0 0 0
593 0 1 0 -4.582642449569559 -9.0010310177866 -3.183005885933009 0 0 0
711 0 1 0 -1.576774936419062 -12.651622581856733 -2.05873992759441 0 0 1
1407 0 1 0 -2.0650045301116022 -8.237070608662371 -2.9788150721812627 0 0 0
3071 0 1 0 -3.173786600062092 -12.570550316063267 -3.8145540871590966 0 0 0
447 0 1 0 -2.4474115505940204 -9.246219518423949 -4.072056737072451 0 0 0
4949 0 1 0 -1.2062444569674036 -8.696558562265553 -1.897439319897965 0 0 0
824 0 1 0 -4.137101746515625 -11.390804540849743 -4.103670904580377 -1 0 0