ITEM: TIMESTEP
0
ITEM: NUMBER OF ATOMS
1000
ITEM: BOX BOUNDS pp pp pp
-1.0500000000000000e+01 1.0500000000000000e+01
-1.2125000000000000e+01 1.2125000000000000e+01
-2.8800000000000001e+01 2.8800000000000001e+01
ITEM: ATOMS id type xs ys zs
502 5 0.0166667 0.0499708 0
503 5 0.05 0.0999681 0
504 5 0.116667 0.0999681 0
506 5 0.0166667 0.149965 0
507 5 0.05 0.199963 0
508 5 0.116667 0.199963 0
510 5 0.0166667 0.24996 0
541 5 0.15 0.0499708 0
542 5 0.216667 0.0499708 0
543 5 0.25 0.0999681 0
544 5 0.316667 0.0999681 0
545 5 0.15 0.149965 0
546 5 0.216667 0.149965 0
547 5 0.25 0.199963 0
548 5 0.316667 0.199963 0
549 5 0.15 0.24996 0
550 5 0.216667 0.24996 0
704 5 0.0666667 0.0499708 0.0590278
708 5 0.0666667 0.149965 0.0590278
712 5 0.0666667 0.24996 0.0590278
743 5 0.2 0.0499708 0.0590278
744 5 0.266667 0.0499708 0.0590278
745 5 0.1 0.0999681 0.0590278
746 5 0.166667 0.0999681 0.0590278
747 5 0.2 0.149965 0.0590278
748 5 0.266667 0.149965 0.0590278
749 5 0.1 0.199963 0.0590278
750 5 0.166667 0.199963 0.0590278
751 5 0.2 0.24996 0.0590278
752 5 0.266667 0.24996 0.0590278
785 5 0.3 0.0999681 0.0590278
789 5 0.3 0.199963 0.0590278
421 5 0.55 0.0499708 0
422 5 0.616667 0.0499708 0
423 5 0.65 0.0999681 0
425 5 0.55 0.149965 0
426 5 0.616667 0.149965 0
427 5 0.65 0.199963 0
429 5 0.55 0.24996 0
430 5 0.616667 0.24996 0
581 5 0.35 0.0499708 0
582 5 0.416667 0.0499708 0
583 5 0.45 0.0999681 0
584 5 0.516667 0.0999681 0
585 5 0.35 0.149965 0
586 5 0.416667 0.149965 0
587 5 0.45 0.199963 0
588 5 0.516667 0.199963 0
589 5 0.35 0.24996 0
590 5 0.416667 0.24996 0
623 5 0.6 0.0499708 0.0590278
625 5 0.5 0.0999681 0.0590278
626 5 0.566667 0.0999681 0.0590278
627 5 0.6 0.149965 0.0590278
629 5 0.5 0.199963 0.0590278
630 5 0.566667 0.199963 0.0590278
631 5 0.6 0.24996 0.0590278
783 5 0.4 0.0499708 0.0590278
784 5 0.466667 0.0499708 0.0590278
786 5 0.366667 0.0999681 0.0590278
787 5 0.4 0.149965 0.0590278
788 5 0.466667 0.149965 0.0590278
790 5 0.366667 0.199963 0.0590278
791 5 0.4 0.24996 0.0590278
792 5 0.466667 0.24996 0.0590278
424 5 0.716667 0.0999681 0
428 5 0.716667 0.199963 0
461 5 0.75 0.0499708 0
462 5 0.816667 0.0499708 0
463 5 0.85 0.0999681 0
464 5 0.916667 0.0999681 0
465 5 0.75 0.149965 0
466 5 0.816667 0.149965 0
467 5 0.85 0.199963 0
468 5 0.916667 0.199963 0
469 5 0.75 0.24996 0
470 5 0.816667 0.24996 0
501 5 0.95 0.0499708 0
505 5 0.95 0.149965 0
509 5 0.95 0.24996 0
624 5 0.666667 0.0499708 0.0590278
628 5 0.666667 0.149965 0.0590278
632 5 0.666667 0.24996 0.0590278
663 5 0.8 0.0499708 0.0590278
664 5 0.866667 0.0499708 0.0590278
665 5 0.7 0.0999681 0.0590278
666 5 0.766667 0.0999681 0.0590278
667 5 0.8 0.149965 0.0590278
668 5 0.866667 0.149965 0.0590278
669 5 0.7 0.199963 0.0590278
670 5 0.766667 0.199963 0.0590278
671 5 0.8 0.24996 0.0590278
672 5 0.866667 0.24996 0.0590278
703 5 1 0.0499708 0.0590278
705 5 0.9 0.0999681 0.0590278
706 5 0.966667 0.0999681 0.0590278
707 5 1 0.149965 0.0590278
709 5 0.9 0.199963 0.0590278
710 5 0.966667 0.199963 0.0590278
711 5 1 0.24996 0.0590278
511 5 0.05 0.299957 0
512 5 0.116667 0.299957 0
514 5 0.0166667 0.349955 0
515 5 0.05 0.399952 0
516 5 0.116667 0.399952 0
518 5 0.0166667 0.44995 0
519 5 0.05 0.499947 0
520 5 0.116667 0.499947 0
551 5 0.25 0.299957 0
552 5 0.316667 0.299957 0
553 5 0.15 0.349955 0
554 5 0.216667 0.349955 0
555 5 0.25 0.399952 0
556 5 0.316667 0.399952 0
557 5 0.15 0.44995 0
558 5 0.216667 0.44995 0
559 5 0.25 0.499947 0
560 5 0.316667 0.499947 0
716 5 0.0666667 0.349955 0.0590278
720 5 0.0666667 0.44995 0.0590278
753 5 0.1 0.299957 0.0590278
754 5 0.166667 0.299957 0.0590278
755 5 0.2 0.349955 0.0590278
756 5 0.266667 0.349955 0.0590278
757 5 0.1 0.399952 0.0590278
758 5 0.166667 0.399952 0.0590278
759 5 0.2 0.44995 0.0590278
760 5 0.266667 0.44995 0.0590278
793 5 0.3 0.299957 0.0590278
797 5 0.3 0.399952 0.0590278
431 5 0.65 0.299957 0
433 5 0.55 0.349955 0
434 5 0.616667 0.349955 0
435 5 0.65 0.399952 0
437 5 0.55 0.44995 0
438 5 0.616667 0.44995 0
439 5 0.65 0.499947 0
591 5 0.45 0.299957 0
592 5 0.516667 0.299957 0
593 5 0.35 0.349955 0
594 5 0.416667 0.349955 0
595 5 0.45 0.399952 0
596 5 0.516667 0.399952 0
597 5 0.35 0.44995 0
598 5 0.416667 0.44995 0
599 5 0.45 0.499947 0
600 5 0.516667 0.499947 0
633 5 0.5 0.299957 0.0590278
634 5 0.566667 0.299957 0.0590278
635 5 0.6 0.349955 0.0590278
637 5 0.5 0.399952 0.0590278
638 5 0.566667 0.399952 0.0590278
639 5 0.6 0.44995 0.0590278
794 5 0.366667 0.299957 0.0590278
795 5 0.4 0.349955 0.0590278
796 5 0.466667 0.349955 0.0590278
798 5 0.366667 0.399952 0.0590278
799 5 0.4 0.44995 0.0590278
800 5 0.466667 0.44995 0.0590278
432 5 0.716667 0.299957 0
436 5 0.716667 0.399952 0
440 5 0.716667 0.499947 0
471 5 0.85 0.299957 0
472 5 0.916667 0.299957 0
473 5 0.75 0.349955 0
474 5 0.816667 0.349955 0
475 5 0.85 0.399952 0
476 5 0.916667 0.399952 0
477 5 0.75 0.44995 0
478 5 0.816667 0.44995 0
479 5 0.85 0.499947 0
480 5 0.916667 0.499947 0
513 5 0.95 0.349955 0
517 5 0.95 0.44995 0
636 5 0.666667 0.349955 0.0590278
640 5 0.666667 0.44995 0.0590278
673 5 0.7 0.299957 0.0590278
674 5 0.766667 0.299957 0.0590278
675 5 0.8 0.349955 0.0590278
676 5 0.866667 0.349955 0.0590278
677 5 0.7 0.399952 0.0590278
678 5 0.766667 0.399952 0.0590278
679 5 0.8 0.44995 0.0590278
680 5 0.866667 0.44995 0.0590278
713 5 0.9 0.299957 0.0590278
714 5 0.966667 0.299957 0.0590278
715 5 1 0.349955 0.0590278
717 5 0.9 0.399952 0.0590278
718 5 0.966667 0.399952 0.0590278
719 5 1 0.44995 0.0590278
482 5 0.0166667 0.549997 0
483 5 0.05 0.599995 0
484 5 0.116667 0.599995 0
486 5 0.0166667 0.649992 0
487 5 0.05 0.699989 0
488 5 0.116667 0.699989 0
490 5 0.0166667 0.749987 0
521 5 0.15 0.549997 0
522 5 0.216667 0.549997 0
523 5 0.25 0.599995 0
524 5 0.316667 0.599995 0
525 5 0.15 0.649992 0
526 5 0.216667 0.649992 0
527 5 0.25 0.699989 0
528 5 0.316667 0.699989 0
529 5 0.15 0.749987 0
530 5 0.216667 0.749987 0
684 5 0.0666667 0.549997 0.0590278
688 5 0.0666667 0.649992 0.0590278
692 5 0.0666667 0.749987 0.0590278
721 5 0.1 0.5 0.0590278
722 5 0.166667 0.5 0.0590278
723 5 0.2 0.549997 0.0590278
724 5 0.266667 0.549997 0.0590278
725 5 0.1 0.599995 0.0590278
726 5 0.166667 0.599995 0.0590278
727 5 0.2 0.649992 0.0590278
728 5 0.266667 0.649992 0.0590278
729 5 0.1 0.699989 0.0590278
730 5 0.166667 0.699989 0.0590278
731 5 0.2 0.749987 0.0590278
732 5 0.266667 0.749987 0.0590278
761 5 0.3 0.5 0.0590278
765 5 0.3 0.599995 0.0590278
769 5 0.3 0.699989 0.0590278
401 5 0.55 0.549997 0
402 5 0.616667 0.549997 0
403 5 0.65 0.599995 0
405 5 0.55 0.649992 0
406 5 0.616667 0.649992 0
407 5 0.65 0.699989 0
409 5 0.55 0.749987 0
410 5 0.616667 0.749987 0
561 5 0.35 0.549997 0
562 5 0.416667 0.549997 0
563 5 0.45 0.599995 0
564 5 0.516667 0.599995 0
565 5 0.35 0.649992 0
566 5 0.416667 0.649992 0
567 5 0.45 0.699989 0
568 5 0.516667 0.699989 0
569 5 0.35 0.749987 0
570 5 0.416667 0.749987 0
601 5 0.5 0.5 0.0590278
602 5 0.566667 0.5 0.0590278
603 5 0.6 0.549997 0.0590278
605 5 0.5 0.599995 0.0590278
606 5 0.566667 0.599995 0.0590278
607 5 0.6 0.649992 0.0590278
609 5 0.5 0.699989 0.0590278
610 5 0.566667 0.699989 0.0590278
611 5 0.6 0.749987 0.0590278
762 5 0.366667 0.5 0.0590278
763 5 0.4 0.549997 0.0590278
764 5 0.466667 0.549997 0.0590278
766 5 0.366667 0.599995 0.0590278
767 5 0.4 0.649992 0.0590278
768 5 0.466667 0.649992 0.0590278
770 5 0.366667 0.699989 0.0590278
771 5 0.4 0.749987 0.0590278
772 5 0.466667 0.749987 0.0590278
404 5 0.716667 0.599995 0
408 5 0.716667 0.699989 0
441 5 0.75 0.549997 0
442 5 0.816667 0.549997 0
443 5 0.85 0.599995 0
444 5 0.916667 0.599995 0
445 5 0.75 0.649992 0
446 5 0.816667 0.649992 0
447 5 0.85 0.699989 0
448 5 0.916667 0.699989 0
449 5 0.75 0.749987 0
450 5 0.816667 0.749987 0
481 5 0.95 0.549997 0
485 5 0.95 0.649992 0
489 5 0.95 0.749987 0
604 5 0.666667 0.549997 0.0590278
608 5 0.666667 0.649992 0.0590278
612 5 0.666667 0.749987 0.0590278
641 5 0.7 0.5 0.0590278
642 5 0.766667 0.5 0.0590278
643 5 0.8 0.549997 0.0590278
644 5 0.866667 0.549997 0.0590278
645 5 0.7 0.599995 0.0590278
646 5 0.766667 0.599995 0.0590278
647 5 0.8 0.649992 0.0590278
648 5 0.866667 0.649992 0.0590278
649 5 0.7 0.699989 0.0590278
650 5 0.766667 0.699989 0.0590278
651 5 0.8 0.749987 0.0590278
652 5 0.866667 0.749987 0.0590278
681 5 0.9 0.5 0.0590278
682 5 0.966667 0.5 0.0590278
683 5 1 0.549997 0.0590278
685 5 0.9 0.599995 0.0590278
686 5 0.966667 0.599995 0.0590278
687 5 1 0.649992 0.0590278
689 5 0.9 0.699989 0.0590278
690 5 0.966667 0.699989 0.0590278
691 5 1 0.749987 0.0590278
491 5 0.05 0.799984 0
492 5 0.116667 0.799984 0
494 5 0.0166667 0.849981 0
495 5 0.05 0.899979 0
496 5 0.116667 0.899979 0
498 5 0.0166667 0.949976 0
499 5 0.05 0.999973 0
500 5 0.116667 0.999973 0
531 5 0.25 0.799984 0
532 5 0.316667 0.799984 0
533 5 0.15 0.849981 0
534 5 0.216667 0.849981 0
535 5 0.25 0.899979 0
536 5 0.316667 0.899979 0
537 5 0.15 0.949976 0
538 5 0.216667 0.949976 0
539 5 0.25 0.999973 0
540 5 0.316667 0.999973 0
696 5 0.0666667 0.849981 0.0590278
700 5 0.0666667 0.949976 0.0590278
733 5 0.1 0.799984 0.0590278
734 5 0.166667 0.799984 0.0590278
735 5 0.2 0.849981 0.0590278
736 5 0.266667 0.849981 0.0590278
737 5 0.1 0.899979 0.0590278
738 5 0.166667 0.899979 0.0590278
739 5 0.2 0.949976 0.0590278
740 5 0.266667 0.949976 0.0590278
741 5 0.1 0.999973 0.0590278
742 5 0.166667 0.999973 0.0590278
773 5 0.3 0.799984 0.0590278
777 5 0.3 0.899979 0.0590278
781 5 0.3 0.999973 0.0590278
411 5 0.65 0.799984 0
413 5 0.55 0.849981 0
414 5 0.616667 0.849981 0
415 5 0.65 0.899979 0
417 5 0.55 0.949976 0
418 5 0.616667 0.949976 0
419 5 0.65 0.999973 0
571 5 0.45 0.799984 0
572 5 0.516667 0.799984 0
573 5 0.35 0.849981 0
574 5 0.416667 0.849981 0
575 5 0.45 0.899979 0
576 5 0.516667 0.899979 0
577 5 0.35 0.949976 0
578 5 0.416667 0.949976 0
579 5 0.45 0.999973 0
580 5 0.516667 0.999973 0
613 5 0.5 0.799984 0.0590278
614 5 0.566667 0.799984 0.0590278
615 5 0.6 0.849981 0.0590278
617 5 0.5 0.899979 0.0590278
618 5 0.566667 0.899979 0.0590278
619 5 0.6 0.949976 0.0590278
621 5 0.5 0.999973 0.0590278
622 5 0.566667 0.999973 0.0590278
774 5 0.366667 0.799984 0.0590278
775 5 0.4 0.849981 0.0590278
776 5 0.466667 0.849981 0.0590278
778 5 0.366667 0.899979 0.0590278
779 5 0.4 0.949976 0.0590278
780 5 0.466667 0.949976 0.0590278
782 5 0.366667 0.999973 0.0590278
412 5 0.716667 0.799984 0
416 5 0.716667 0.899979 0
420 5 0.716667 0.999973 0
451 5 0.85 0.799984 0
452 5 0.916667 0.799984 0
453 5 0.75 0.849981 0
454 5 0.816667 0.849981 0
455 5 0.85 0.899979 0
456 5 0.916667 0.899979 0
457 5 0.75 0.949976 0
458 5 0.816667 0.949976 0
459 5 0.85 0.999973 0
460 5 0.916667 0.999973 0
493 5 0.95 0.849981 0
497 5 0.95 0.949976 0
616 5 0.666667 0.849981 0.0590278
620 5 0.666667 0.949976 0.0590278
653 5 0.7 0.799984 0.0590278
654 5 0.766667 0.799984 0.0590278
655 5 0.8 0.849981 0.0590278
656 5 0.866667 0.849981 0.0590278
657 5 0.7 0.899979 0.0590278
658 5 0.766667 0.899979 0.0590278
659 5 0.8 0.949976 0.0590278
660 5 0.866667 0.949976 0.0590278
661 5 0.7 0.999973 0.0590278
662 5 0.766667 0.999973 0.0590278
693 5 0.9 0.799984 0.0590278
694 5 0.966667 0.799984 0.0590278
695 5 1 0.849981 0.0590278
697 5 0.9 0.899979 0.0590278
698 5 0.966667 0.899979 0.0590278
699 5 1 0.949976 0.0590278
701 5 0.9 0.999973 0.0590278
702 5 0.966667 0.999973 0.0590278
902 5 0.0166667 0.0499708 0.118056
903 5 0.05 0.0999681 0.118056
904 5 0.116667 0.0999681 0.118056
906 5 0.0166667 0.149965 0.118056
907 5 0.05 0.199963 0.118056
908 5 0.116667 0.199963 0.118056
910 5 0.0166667 0.24996 0.118056
941 5 0.15 0.0499708 0.118056
942 5 0.216667 0.0499708 0.118056
943 5 0.25 0.0999681 0.118056
944 5 0.316667 0.0999681 0.118056
945 5 0.15 0.149965 0.118056
946 5 0.216667 0.149965 0.118056
947 5 0.25 0.199963 0.118056
948 5 0.316667 0.199963 0.118056
949 5 0.15 0.24996 0.118056
950 5 0.216667 0.24996 0.118056
821 5 0.55 0.0499708 0.118056
822 5 0.616667 0.0499708 0.118056
823 5 0.65 0.0999681 0.118056
825 5 0.55 0.149965 0.118056
826 5 0.616667 0.149965 0.118056
827 5 0.65 0.199963 0.118056
829 5 0.55 0.24996 0.118056
830 5 0.616667 0.24996 0.118056
981 5 0.35 0.0499708 0.118056
982 5 0.416667 0.0499708 0.118056
983 5 0.45 0.0999681 0.118056
984 5 0.516667 0.0999681 0.118056
985 5 0.35 0.149965 0.118056
986 5 0.416667 0.149965 0.118056
987 5 0.45 0.199963 0.118056
988 5 0.516667 0.199963 0.118056
989 5 0.35 0.24996 0.118056
990 5 0.416667 0.24996 0.118056
824 5 0.716667 0.0999681 0.118056
828 5 0.716667 0.199963 0.118056
861 5 0.75 0.0499708 0.118056
862 5 0.816667 0.0499708 0.118056
863 5 0.85 0.0999681 0.118056
864 5 0.916667 0.0999681 0.118056
865 5 0.75 0.149965 0.118056
866 5 0.816667 0.149965 0.118056
867 5 0.85 0.199963 0.118056
868 5 0.916667 0.199963 0.118056
869 5 0.75 0.24996 0.118056
870 5 0.816667 0.24996 0.118056
901 5 0.95 0.0499708 0.118056
905 5 0.95 0.149965 0.118056
909 5 0.95 0.24996 0.118056
911 5 0.05 0.299957 0.118056
912 5 0.116667 0.299957 0.118056
914 5 0.0166667 0.349955 0.118056
915 5 0.05 0.399952 0.118056
916 5 0.116667 0.399952 0.118056
918 5 0.0166667 0.44995 0.118056
919 5 0.05 0.499947 0.118056
920 5 0.116667 0.499947 0.118056
951 5 0.25 0.299957 0.118056
952 5 0.316667 0.299957 0.118056
953 5 0.15 0.349955 0.118056
954 5 0.216667 0.349955 0.118056
955 5 0.25 0.399952 0.118056
956 5 0.316667 0.399952 0.118056
957 5 0.15 0.44995 0.118056
958 5 0.216667 0.44995 0.118056
959 5 0.25 0.499947 0.118056
960 5 0.316667 0.499947 0.118056
831 5 0.65 0.299957 0.118056
833 5 0.55 0.349955 0.118056
834 5 0.616667 0.349955 0.118056
835 5 0.65 0.399952 0.118056
837 5 0.55 0.44995 0.118056
838 5 0.616667 0.44995 0.118056
839 5 0.65 0.499947 0.118056
991 5 0.45 0.299957 0.118056
992 5 0.516667 0.299957 0.118056
993 5 0.35 0.349955 0.118056
994 5 0.416667 0.349955 0.118056
995 5 0.45 0.399952 0.118056
996 5 0.516667 0.399952 0.118056
997 5 0.35 0.44995 0.118056
998 5 0.416667 0.44995 0.118056
999 5 0.45 0.499947 0.118056
1000 5 0.516667 0.499947 0.118056
832 5 0.716667 0.299957 0.118056
836 5 0.716667 0.399952 0.118056
840 5 0.716667 0.499947 0.118056
871 5 0.85 0.299957 0.118056
872 5 0.916667 0.299957 0.118056
873 5 0.75 0.349955 0.118056
874 5 0.816667 0.349955 0.118056
875 5 0.85 0.399952 0.118056
876 5 0.916667 0.399952 0.118056
877 5 0.75 0.44995 0.118056
878 5 0.816667 0.44995 0.118056
879 5 0.85 0.499947 0.118056
880 5 0.916667 0.499947 0.118056
913 5 0.95 0.349955 0.118056
917 5 0.95 0.44995 0.118056
882 5 0.0166667 0.549997 0.118056
883 5 0.05 0.599995 0.118056
884 5 0.116667 0.599995 0.118056
886 5 0.0166667 0.649992 0.118056
887 5 0.05 0.699989 0.118056
888 5 0.116667 0.699989 0.118056
890 5 0.0166667 0.749987 0.118056
921 5 0.15 0.549997 0.118056
922 5 0.216667 0.549997 0.118056
923 5 0.25 0.599995 0.118056
924 5 0.316667 0.599995 0.118056
925 5 0.15 0.649992 0.118056
926 5 0.216667 0.649992 0.118056
927 5 0.25 0.699989 0.118056
928 5 0.316667 0.699989 0.118056
929 5 0.15 0.749987 0.118056
930 5 0.216667 0.749987 0.118056
801 5 0.55 0.549997 0.118056
802 5 0.616667 0.549997 0.118056
803 5 0.65 0.599995 0.118056
805 5 0.55 0.649992 0.118056
806 5 0.616667 0.649992 0.118056
807 5 0.65 0.699989 0.118056
809 5 0.55 0.749987 0.118056
810 5 0.616667 0.749987 0.118056
961 5 0.35 0.549997 0.118056
962 5 0.416667 0.549997 0.118056
963 5 0.45 0.599995 0.118056
964 5 0.516667 0.599995 0.118056
965 5 0.35 0.649992 0.118056
966 5 0.416667 0.649992 0.118056
967 5 0.45 0.699989 0.118056
968 5 0.516667 0.699989 0.118056
969 5 0.35 0.749987 0.118056
970 5 0.416667 0.749987 0.118056
804 5 0.716667 0.599995 0.118056
808 5 0.716667 0.699989 0.118056
841 5 0.75 0.549997 0.118056
842 5 0.816667 0.549997 0.118056
843 5 0.85 0.599995 0.118056
844 5 0.916667 0.599995 0.118056
845 5 0.75 0.649992 0.118056
846 5 0.816667 0.649992 0.118056
847 5 0.85 0.699989 0.118056
848 5 0.916667 0.699989 0.118056
849 5 0.75 0.749987 0.118056
850 5 0.816667 0.749987 0.118056
881 5 0.95 0.549997 0.118056
885 5 0.95 0.649992 0.118056
889 5 0.95 0.749987 0.118056
891 5 0.05 0.799984 0.118056
892 5 0.116667 0.799984 0.118056
894 5 0.0166667 0.849981 0.118056
895 5 0.05 0.899979 0.118056
896 5 0.116667 0.899979 0.118056
898 5 0.0166667 0.949976 0.118056
899 5 0.05 0.999973 0.118056
900 5 0.116667 0.999973 0.118056
931 5 0.25 0.799984 0.118056
932 5 0.316667 0.799984 0.118056
933 5 0.15 0.849981 0.118056
934 5 0.216667 0.849981 0.118056
935 5 0.25 0.899979 0.118056
936 5 0.316667 0.899979 0.118056
937 5 0.15 0.949976 0.118056
938 5 0.216667 0.949976 0.118056
939 5 0.25 0.999973 0.118056
940 5 0.316667 0.999973 0.118056
811 5 0.65 0.799984 0.118056
813 5 0.55 0.849981 0.118056
814 5 0.616667 0.849981 0.118056
815 5 0.65 0.899979 0.118056
817 5 0.55 0.949976 0.118056
818 5 0.616667 0.949976 0.118056
819 5 0.65 0.999973 0.118056
971 5 0.45 0.799984 0.118056
972 5 0.516667 0.799984 0.118056
973 5 0.35 0.849981 0.118056
974 5 0.416667 0.849981 0.118056
975 5 0.45 0.899979 0.118056
976 5 0.516667 0.899979 0.118056
977 5 0.35 0.949976 0.118056
978 5 0.416667 0.949976 0.118056
979 5 0.45 0.999973 0.118056
980 5 0.516667 0.999973 0.118056
812 5 0.716667 0.799984 0.118056
816 5 0.716667 0.899979 0.118056
820 5 0.716667 0.999973 0.118056
851 5 0.85 0.799984 0.118056
852 5 0.916667 0.799984 0.118056
853 5 0.75 0.849981 0.118056
854 5 0.816667 0.849981 0.118056
855 5 0.85 0.899979 0.118056
856 5 0.916667 0.899979 0.118056
857 5 0.75 0.949976 0.118056
858 5 0.816667 0.949976 0.118056
859 5 0.85 0.999973 0.118056
860 5 0.916667 0.999973 0.118056
893 5 0.95 0.849981 0.118056
897 5 0.95 0.949976 0.118056
102 5 0.0166667 0.0499708 0.881944
103 5 0.05 0.0999681 0.881944
104 5 0.116667 0.0999681 0.881944
106 5 0.0166667 0.149965 0.881944
107 5 0.05 0.199963 0.881944
108 5 0.116667 0.199963 0.881944
110 5 0.0166667 0.24996 0.881944
141 5 0.15 0.0499708 0.881944
142 5 0.216667 0.0499708 0.881944
143 5 0.25 0.0999681 0.881944
144 5 0.316667 0.0999681 0.881944
145 5 0.15 0.149965 0.881944
146 5 0.216667 0.149965 0.881944
147 5 0.25 0.199963 0.881944
148 5 0.316667 0.199963 0.881944
149 5 0.15 0.24996 0.881944
150 5 0.216667 0.24996 0.881944
21 5 0.55 0.0499708 0.881944
22 5 0.616667 0.0499708 0.881944
23 5 0.65 0.0999681 0.881944
25 5 0.55 0.149965 0.881944
26 5 0.616667 0.149965 0.881944
27 5 0.65 0.199963 0.881944
29 5 0.55 0.24996 0.881944
30 5 0.616667 0.24996 0.881944
181 5 0.35 0.0499708 0.881944
182 5 0.416667 0.0499708 0.881944
183 5 0.45 0.0999681 0.881944
184 5 0.516667 0.0999681 0.881944
185 5 0.35 0.149965 0.881944
186 5 0.416667 0.149965 0.881944
187 5 0.45 0.199963 0.881944
188 5 0.516667 0.199963 0.881944
189 5 0.35 0.24996 0.881944
190 5 0.416667 0.24996 0.881944
24 5 0.716667 0.0999681 0.881944
28 5 0.716667 0.199963 0.881944
61 5 0.75 0.0499708 0.881944
62 5 0.816667 0.0499708 0.881944
63 5 0.85 0.0999681 0.881944
64 5 0.916667 0.0999681 0.881944
65 5 0.75 0.149965 0.881944
66 5 0.816667 0.149965 0.881944
67 5 0.85 0.199963 0.881944
68 5 0.916667 0.199963 0.881944
69 5 0.75 0.24996 0.881944
70 5 0.816667 0.24996 0.881944
101 5 0.95 0.0499708 0.881944
105 5 0.95 0.149965 0.881944
109 5 0.95 0.24996 0.881944
111 5 0.05 0.299957 0.881944
112 5 0.116667 0.299957 0.881944
114 5 0.0166667 0.349955 0.881944
115 5 0.05 0.399952 0.881944
116 5 0.116667 0.399952 0.881944
118 5 0.0166667 0.44995 0.881944
119 5 0.05 0.499947 0.881944
120 5 0.116667 0.499947 0.881944
151 5 0.25 0.299957 0.881944
152 5 0.316667 0.299957 0.881944
153 5 0.15 0.349955 0.881944
154 5 0.216667 0.349955 0.881944
155 5 0.25 0.399952 0.881944
156 5 0.316667 0.399952 0.881944
157 5 0.15 0.44995 0.881944
158 5 0.216667 0.44995 0.881944
159 5 0.25 0.499947 0.881944
160 5 0.316667 0.499947 0.881944
31 5 0.65 0.299957 0.881944
33 5 0.55 0.349955 0.881944
34 5 0.616667 0.349955 0.881944
35 5 0.65 0.399952 0.881944
37 5 0.55 0.44995 0.881944
38 5 0.616667 0.44995 0.881944
39 5 0.65 0.499947 0.881944
191 5 0.45 0.299957 0.881944
192 5 0.516667 0.299957 0.881944
193 5 0.35 0.349955 0.881944
194 5 0.416667 0.349955 0.881944
195 5 0.45 0.399952 0.881944
196 5 0.516667 0.399952 0.881944
197 5 0.35 0.44995 0.881944
198 5 0.416667 0.44995 0.881944
199 5 0.45 0.499947 0.881944
200 5 0.516667 0.499947 0.881944
32 5 0.716667 0.299957 0.881944
36 5 0.716667 0.399952 0.881944
40 5 0.716667 0.499947 0.881944
71 5 0.85 0.299957 0.881944
72 5 0.916667 0.299957 0.881944
73 5 0.75 0.349955 0.881944
74 5 0.816667 0.349955 0.881944
75 5 0.85 0.399952 0.881944
76 5 0.916667 0.399952 0.881944
77 5 0.75 0.44995 0.881944
78 5 0.816667 0.44995 0.881944
79 5 0.85 0.499947 0.881944
80 5 0.916667 0.499947 0.881944
113 5 0.95 0.349955 0.881944
117 5 0.95 0.44995 0.881944
82 5 0.0166667 0.549997 0.881944
83 5 0.05 0.599995 0.881944
84 5 0.116667 0.599995 0.881944
86 5 0.0166667 0.649992 0.881944
87 5 0.05 0.699989 0.881944
88 5 0.116667 0.699989 0.881944
90 5 0.0166667 0.749987 0.881944
121 5 0.15 0.549997 0.881944
122 5 0.216667 0.549997 0.881944
123 5 0.25 0.599995 0.881944
124 5 0.316667 0.599995 0.881944
125 5 0.15 0.649992 0.881944
126 5 0.216667 0.649992 0.881944
127 5 0.25 0.699989 0.881944
128 5 0.316667 0.699989 0.881944
129 5 0.15 0.749987 0.881944
130 5 0.216667 0.749987 0.881944
1 5 0.55 0.549997 0.881944
2 5 0.616667 0.549997 0.881944
3 5 0.65 0.599995 0.881944
5 5 0.55 0.649992 0.881944
6 5 0.616667 0.649992 0.881944
7 5 0.65 0.699989 0.881944
9 5 0.55 0.749987 0.881944
10 5 0.616667 0.749987 0.881944
161 5 0.35 0.549997 0.881944
162 5 0.416667 0.549997 0.881944
163 5 0.45 0.599995 0.881944
164 5 0.516667 0.599995 0.881944
165 5 0.35 0.649992 0.881944
166 5 0.416667 0.649992 0.881944
167 5 0.45 0.699989 0.881944
168 5 0.516667 0.699989 0.881944
169 5 0.35 0.749987 0.881944
170 5 0.416667 0.749987 0.881944
4 5 0.716667 0.599995 0.881944
8 5 0.716667 0.699989 0.881944
41 5 0.75 0.549997 0.881944
42 5 0.816667 0.549997 0.881944
43 5 0.85 0.599995 0.881944
44 5 0.916667 0.599995 0.881944
45 5 0.75 0.649992 0.881944
46 5 0.816667 0.649992 0.881944
47 5 0.85 0.699989 0.881944
48 5 0.916667 0.699989 0.881944
49 5 0.75 0.749987 0.881944
50 5 0.816667 0.749987 0.881944
81 5 0.95 0.549997 0.881944
85 5 0.95 0.649992 0.881944
89 5 0.95 0.749987 0.881944
91 5 0.05 0.799984 0.881944
92 5 0.116667 0.799984 0.881944
94 5 0.0166667 0.849981 0.881944
95 5 0.05 0.899979 0.881944
96 5 0.116667 0.899979 0.881944
98 5 0.0166667 0.949976 0.881944
99 5 0.05 0.999973 0.881944
100 5 0.116667 0.999973 0.881944
131 5 0.25 0.799984 0.881944
132 5 0.316667 0.799984 0.881944
133 5 0.15 0.849981 0.881944
134 5 0.216667 0.849981 0.881944
135 5 0.25 0.899979 0.881944
136 5 0.316667 0.899979 0.881944
137 5 0.15 0.949976 0.881944
138 5 0.216667 0.949976 0.881944
139 5 0.25 0.999973 0.881944
140 5 0.316667 0.999973 0.881944
11 5 0.65 0.799984 0.881944
13 5 0.55 0.849981 0.881944
14 5 0.616667 0.849981 0.881944
15 5 0.65 0.899979 0.881944
17 5 0.55 0.949976 0.881944
18 5 0.616667 0.949976 0.881944
19 5 0.65 0.999973 0.881944
171 5 0.45 0.799984 0.881944
172 5 0.516667 0.799984 0.881944
173 5 0.35 0.849981 0.881944
174 5 0.416667 0.849981 0.881944
175 5 0.45 0.899979 0.881944
176 5 0.516667 0.899979 0.881944
177 5 0.35 0.949976 0.881944
178 5 0.416667 0.949976 0.881944
179 5 0.45 0.999973 0.881944
180 5 0.516667 0.999973 0.881944
12 5 0.716667 0.799984 0.881944
16 5 0.716667 0.899979 0.881944
20 5 0.716667 0.999973 0.881944
51 5 0.85 0.799984 0.881944
52 5 0.916667 0.799984 0.881944
53 5 0.75 0.849981 0.881944
54 5 0.816667 0.849981 0.881944
55 5 0.85 0.899979 0.881944
56 5 0.916667 0.899979 0.881944
57 5 0.75 0.949976 0.881944
58 5 0.816667 0.949976 0.881944
59 5 0.85 0.999973 0.881944
60 5 0.916667 0.999973 0.881944
93 5 0.95 0.849981 0.881944
97 5 0.95 0.949976 0.881944
304 5 0.0666667 0.0499708 0.940972
308 5 0.0666667 0.149965 0.940972
312 5 0.0666667 0.24996 0.940972
343 5 0.2 0.0499708 0.940972
344 5 0.266667 0.0499708 0.940972
345 5 0.1 0.0999681 0.940972
346 5 0.166667 0.0999681 0.940972
347 5 0.2 0.149965 0.940972
348 5 0.266667 0.149965 0.940972
349 5 0.1 0.199963 0.940972
350 5 0.166667 0.199963 0.940972
351 5 0.2 0.24996 0.940972
352 5 0.266667 0.24996 0.940972
385 5 0.3 0.0999681 0.940972
389 5 0.3 0.199963 0.940972
223 5 0.6 0.0499708 0.940972
225 5 0.5 0.0999681 0.940972
226 5 0.566667 0.0999681 0.940972
227 5 0.6 0.149965 0.940972
229 5 0.5 0.199963 0.940972
230 5 0.566667 0.199963 0.940972
231 5 0.6 0.24996 0.940972
383 5 0.4 0.0499708 0.940972
384 5 0.466667 0.0499708 0.940972
386 5 0.366667 0.0999681 0.940972
387 5 0.4 0.149965 0.940972
388 5 0.466667 0.149965 0.940972
390 5 0.366667 0.199963 0.940972
391 5 0.4 0.24996 0.940972
392 5 0.466667 0.24996 0.940972
224 5 0.666667 0.0499708 0.940972
228 5 0.666667 0.149965 0.940972
232 5 0.666667 0.24996 0.940972
263 5 0.8 0.0499708 0.940972
264 5 0.866667 0.0499708 0.940972
265 5 0.7 0.0999681 0.940972
266 5 0.766667 0.0999681 0.940972
267 5 0.8 0.149965 0.940972
268 5 0.866667 0.149965 0.940972
269 5 0.7 0.199963 0.940972
270 5 0.766667 0.199963 0.940972
271 5 0.8 0.24996 0.940972
272 5 0.866667 0.24996 0.940972
303 5 1 0.0499708 0.940972
305 5 0.9 0.0999681 0.940972
306 5 0.966667 0.0999681 0.940972
307 5 1 0.149965 0.940972
309 5 0.9 0.199963 0.940972
310 5 0.966667 0.199963 0.940972
311 5 1 0.24996 0.940972
316 5 0.0666667 0.349955 0.940972
320 5 0.0666667 0.44995 0.940972
353 5 0.1 0.299957 0.940972
354 5 0.166667 0.299957 0.940972
355 5 0.2 0.349955 0.940972
356 5 0.266667 0.349955 0.940972
357 5 0.1 0.399952 0.940972
358 5 0.166667 0.399952 0.940972
359 5 0.2 0.44995 0.940972
360 5 0.266667 0.44995 0.940972
393 5 0.3 0.299957 0.940972
397 5 0.3 0.399952 0.940972
233 5 0.5 0.299957 0.940972
234 5 0.566667 0.299957 0.940972
235 5 0.6 0.349955 0.940972
237 5 0.5 0.399952 0.940972
238 5 0.566667 0.399952 0.940972
239 5 0.6 0.44995 0.940972
394 5 0.366667 0.299957 0.940972
395 5 0.4 0.349955 0.940972
396 5 0.466667 0.349955 0.940972
398 5 0.366667 0.399952 0.940972
399 5 0.4 0.44995 0.940972
400 5 0.466667 0.44995 0.940972
236 5 0.666667 0.349955 0.940972
240 5 0.666667 0.44995 0.940972
273 5 0.7 0.299957 0.940972
274 5 0.766667 0.299957 0.940972
275 5 0.8 0.349955 0.940972
276 5 0.866667 0.349955 0.940972
277 5 0.7 0.399952 0.940972
278 5 0.766667 0.399952 0.940972
279 5 0.8 0.44995 0.940972
280 5 0.866667 0.44995 0.940972
313 5 0.9 0.299957 0.940972
314 5 0.966667 0.299957 0.940972
315 5 1 0.349955 0.940972
317 5 0.9 0.399952 0.940972
318 5 0.966667 0.399952 0.940972
319 5 1 0.44995 0.940972
284 5 0.0666667 0.549997 0.940972
288 5 0.0666667 0.649992 0.940972
292 5 0.0666667 0.749987 0.940972
321 5 0.1 0.5 0.940972
322 5 0.166667 0.5 0.940972
323 5 0.2 0.549997 0.940972
324 5 0.266667 0.549997 0.940972
325 5 0.1 0.599995 0.940972
326 5 0.166667 0.599995 0.940972
327 5 0.2 0.649992 0.940972
328 5 0.266667 0.649992 0.940972
329 5 0.1 0.699989 0.940972
330 5 0.166667 0.699989 0.940972
331 5 0.2 0.749987 0.940972
332 5 0.266667 0.749987 0.940972
361 5 0.3 0.5 0.940972
365 5 0.3 0.599995 0.940972
369 5 0.3 0.699989 0.940972
201 5 0.5 0.5 0.940972
202 5 0.566667 0.5 0.940972
203 5 0.6 0.549997 0.940972
205 5 0.5 0.599995 0.940972
206 5 0.566667 0.599995 0.940972
207 5 0.6 0.649992 0.940972
209 5 0.5 0.699989 0.940972
210 5 0.566667 0.699989 0.940972
211 5 0.6 0.749987 0.940972
362 5 0.366667 0.5 0.940972
363 5 0.4 0.549997 0.940972
364 5 0.466667 0.549997 0.940972
366 5 0.366667 0.599995 0.940972
367 5 0.4 0.649992 0.940972
368 5 0.466667 0.649992 0.940972
370 5 0.366667 0.699989 0.940972
371 5 0.4 0.749987 0.940972
372 5 0.466667 0.749987 0.940972
204 5 0.666667 0.549997 0.940972
208 5 0.666667 0.649992 0.940972
212 5 0.666667 0.749987 0.940972
241 5 0.7 0.5 0.940972
242 5 0.766667 0.5 0.940972
243 5 0.8 0.549997 0.940972
244 5 0.866667 0.549997 0.940972
245 5 0.7 0.599995 0.940972
246 5 0.766667 0.599995 0.940972
247 5 0.8 0.649992 0.940972
248 5 0.866667 0.649992 0.940972
249 5 0.7 0.699989 0.940972
250 5 0.766667 0.699989 0.940972
251 5 0.8 0.749987 0.940972
252 5 0.866667 0.749987 0.940972
281 5 0.9 0.5 0.940972
282 5 0.966667 0.5 0.940972
283 5 1 0.549997 0.940972
285 5 0.9 0.599995 0.940972
286 5 0.966667 0.599995 0.940972
287 5 1 0.649992 0.940972
289 5 0.9 0.699989 0.940972
290 5 0.966667 0.699989 0.940972
291 5 1 0.749987 0.940972
296 5 0.0666667 0.849981 0.940972
300 5 0.0666667 0.949976 0.940972
333 5 0.1 0.799984 0.940972
334 5 0.166667 0.799984 0.940972
335 5 0.2 0.849981 0.940972
336 5 0.266667 0.849981 0.940972
337 5 0.1 0.899979 0.940972
338 5 0.166667 0.899979 0.940972
339 5 0.2 0.949976 0.940972
340 5 0.266667 0.949976 0.940972
341 5 0.1 0.999973 0.940972
342 5 0.166667 0.999973 0.940972
373 5 0.3 0.799984 0.940972
377 5 0.3 0.899979 0.940972
381 5 0.3 0.999973 0.940972
213 5 0.5 0.799984 0.940972
214 5 0.566667 0.799984 0.940972
215 5 0.6 0.849981 0.940972
217 5 0.5 0.899979 0.940972
218 5 0.566667 0.899979 0.940972
219 5 0.6 0.949976 0.940972
221 5 0.5 0.999973 0.940972
222 5 0.566667 0.999973 0.940972
374 5 0.366667 0.799984 0.940972
375 5 0.4 0.849981 0.940972
376 5 0.466667 0.849981 0.940972
378 5 0.366667 0.899979 0.940972
379 5 0.4 0.949976 0.940972
380 5 0.466667 0.949976 0.940972
382 5 0.366667 0.999973 0.940972
216 5 0.666667 0.849981 0.940972
220 5 0.666667 0.949976 0.940972
253 5 0.7 0.799984 0.940972
254 5 0.766667 0.799984 0.940972
255 5 0.8 0.849981 0.940972
256 5 0.866667 0.849981 0.940972
257 5 0.7 0.899979 0.940972
258 5 0.766667 0.899979 0.940972
259 5 0.8 0.949976 0.940972
260 5 0.866667 0.949976 0.940972
261 5 0.7 0.999973 0.940972
262 5 0.766667 0.999973 0.940972
293 5 0.9 0.799984 0.940972
294 5 0.966667 0.799984 0.940972
295 5 1 0.849981 0.940972
297 5 0.9 0.899979 0.940972
298 5 0.966667 0.899979 0.940972
299 5 1 0.949976 0.940972
301 5 0.9 0.999973 0.940972
302 5 0.966667 0.999973 0.940972
ITEM: TIMESTEP
1000
ITEM: NUMBER OF ATOMS
1000
ITEM: BOX BOUNDS pp pp pp
-1.0611293788848384e+01 1.0611293788848384e+01
-1.2374431625706272e+01 1.2374431625706272e+01
-2.8800000000000001e+01 2.8800000000000001e+01
ITEM: ATOMS id type xs ys zs
502 5 0.00992701 0.0501807 0.000523744
503 5 0.0433209 0.100138 0.999353
504 5 0.109847 0.100124 0.000475427