ITEM: TIMESTEP
0
ITEM: NUMBER OF ATOMS
2251
ITEM: BOX BOUNDS pp pp pp
-1.0604020997495237e+01 1.0604020997495237e+01
-1.2358509382989562e+01 1.2358509382989562e+01
-2.8800000000000001e+01 2.8800000000000001e+01
ITEM: ATOMS id type xs ys zs
704 5 0.0870276 0.0439513 0.0601648
708 5 0.0880045 0.144497 0.0593439
743 5 0.219084 0.0445789 0.06375
744 5 0.286437 0.0448717 0.0623681
745 5 0.12015 0.0941329 0.0621719
746 5 0.187025 0.0945574 0.0599182
747 5 0.219413 0.144329 0.0646411
748 5 0.286843 0.144705 0.0619848
749 5 0.121092 0.193635 0.0639481
750 5 0.18808 0.194373 0.0608723
751 5 0.220345 0.243292 0.0664646
703 5 0.0192194 0.0447561 0.0632479
707 5 0.0205578 0.145237 0.0623275
711 5 0.0207375 0.244074 0.0644385
712 5 0.0883069 0.24425 0.0614308
752 5 0.287806 0.243976 0.064448
508 5 0.132081 0.191027 0.00171513
541 5 0.166633 0.0406943 0.00484031
503 5 0.0650076 0.092802 0.00153008
510 5 0.0303652 0.239355 0.000447624
785 5 0.3189 0.0947079 0.0656916
789 5 0.319672 0.193747 0.0664381
904 5 0.14804 0.138839 0.124266
906 5 0.050738 0.187587 0.12331
907 5 0.0824738 0.23943 0.124983
908 5 0.150559 0.24016 0.122845
946 5 0.251161 0.189868 0.122904
506 5 0.0300443 0.14124 0.00136566
548 5 0.331527 0.192997 0.000568166
502 5 0.032879 0.0418417 0.00497674
546 5 0.233376 0.140063 0.00233262
504 5 0.131533 0.0908099 0.0045225
623 5 0.617067 0.044682 0.0662639
625 5 0.518828 0.0951866 0.0665333
626 5 0.585559 0.0955365 0.0636748
627 5 0.617713 0.145127 0.0672763
629 5 0.519719 0.194288 0.0665029
630 5 0.586355 0.195078 0.0642201
783 5 0.419228 0.0446821 0.0671241
784 5 0.485594 0.0452908 0.0624172
786 5 0.386627 0.0943361 0.063409
787 5 0.419608 0.144937 0.0660484
788 5 0.486953 0.144969 0.0628123
790 5 0.386101 0.194655 0.0634936
791 5 0.419525 0.244096 0.0675942
792 5 0.486965 0.244345 0.0642519
631 5 0.618797 0.245157 0.0672192
948 5 0.350741 0.239767 0.123463
427 5 0.663196 0.19085 0.00056695
423 5 0.664662 0.0921669 0.00106779
706 5 0.98701 0.0953087 0.058926
710 5 0.987116 0.195148 0.0604884
624 5 0.685068 0.0450067 0.0650462
628 5 0.684281 0.145284 0.063465
463 5 0.864387 0.0903925 0.00195585
465 5 0.764135 0.141256 0.000542613
505 5 0.96328 0.141966 0.00157176
663 5 0.818509 0.0456168 0.0665039
664 5 0.886074 0.0450996 0.0623871
665 5 0.717879 0.095533 0.0669915
666 5 0.784777 0.0956981 0.0636412
667 5 0.817984 0.146097 0.0643748
668 5 0.885275 0.145251 0.0602172
669 5 0.717318 0.195739 0.0656147
670 5 0.783896 0.195724 0.0607601
671 5 0.817619 0.245234 0.063469
672 5 0.884797 0.245133 0.0605441
705 5 0.919605 0.0955133 0.0628681
709 5 0.919034 0.195295 0.0630942
467 5 0.865045 0.189187 0.00181952
509 5 0.964641 0.240751 0.000578211
501 5 0.965663 0.0418564 0.00474693
464 5 0.932109 0.0909219 0.000268434
469 5 0.767168 0.240957 0.000438562
632 5 0.684824 0.24518 0.0629882
461 5 0.764684 0.0412195 0.00015838
716 5 0.086966 0.343516 0.0611165
720 5 0.085948 0.443189 0.0619874
753 5 0.120181 0.294129 0.0654571
754 5 0.187773 0.293671 0.0637711
755 5 0.219241 0.343429 0.0680118
756 5 0.286534 0.344274 0.0652965
757 5 0.118882 0.393052 0.0653486
758 5 0.186565 0.393083 0.06423
759 5 0.218354 0.443537 0.0674547
760 5 0.285796 0.444365 0.0643108
715 5 0.0196476 0.344138 0.063338
719 5 0.0185771 0.444393 0.0632271
721 5 0.117148 0.49337 0.0668221
722 5 0.184389 0.493307 0.0649957
514 5 0.0345794 0.343355 0.0023174
516 5 0.136021 0.391938 0.0018428
554 5 0.230334 0.34289 0.00115114
512 5 0.131462 0.291021 0.00139065
793 5 0.319902 0.294354 0.0682752
797 5 0.319798 0.394759 0.0675693
761 5 0.318436 0.494444 0.0673802
910 5 0.0502399 0.288862 0.120505
950 5 0.248609 0.29098 0.123836
911 5 0.0796118 0.339215 0.123478
912 5 0.147124 0.338904 0.123918
914 5 0.0524232 0.389959 0.122266
518 5 0.0333783 0.441576 0.00360981
520 5 0.133458 0.492952 0.00237252
552 5 0.331278 0.293274 0.000776305
559 5 0.267545 0.491806 0.00129715
519 5 0.0656638 0.491266 0.00203167
633 5 0.520293 0.294435 0.0679262
634 5 0.586765 0.29514 0.0639695
635 5 0.619216 0.345151 0.0671957
637 5 0.519987 0.394858 0.0666815
638 5 0.587018 0.394733 0.0630302
639 5 0.61957 0.445643 0.0631468
794 5 0.387349 0.294821 0.0657459
795 5 0.419975 0.345232 0.0686497
796 5 0.486903 0.344476 0.0650991
798 5 0.387133 0.394788 0.0638344
799 5 0.419423 0.445543 0.064966
800 5 0.486869 0.444143 0.0614144
762 5 0.385233 0.495503 0.0625523
434 5 0.630318 0.341736 0.0023123
602 5 0.585717 0.495308 0.0596229
601 5 0.518981 0.495007 0.0631286
596 5 0.534879 0.391958 0.00123485
560 5 0.333683 0.491576 0.00086097
600 5 0.533197 0.491499 0.000457031
431 5 0.665081 0.29172 0.000159359
438 5 0.635108 0.440884 0.00236635
439 5 0.665624 0.490747 0.000466728
714 5 0.986283 0.293859 0.0619667
718 5 0.986404 0.393929 0.0597679
682 5 0.986307 0.495746 0.0613949
636 5 0.685673 0.345042 0.0628852
640 5 0.686086 0.445817 0.0596417
673 5 0.718459 0.294489 0.0652475
674 5 0.784904 0.294889 0.0610356
675 5 0.818598 0.344765 0.0642637
676 5 0.885771 0.344448 0.0608388
677 5 0.718529 0.396159 0.0643871
678 5 0.785925 0.395547 0.061799
679 5 0.818228 0.445093 0.0655386
680 5 0.885138 0.444446 0.0613107
713 5 0.918081 0.29471 0.0639928
717 5 0.919025 0.393835 0.0633137
642 5 0.785571 0.495511 0.0620103
641 5 0.717575 0.496124 0.0622344
471 5 0.868125 0.291099 0.000161007
513 5 0.96641 0.341512 0.00364153
473 5 0.766835 0.341815 0.000289508
475 5 0.867247 0.39039 0.00428043
476 5 0.933725 0.389385 0.00418624
479 5 0.8686 0.491514 0.00399799
477 5 0.766844 0.441828 0.00149552
681 5 0.91868 0.494901 0.064867
909 5 0.984888 0.288781 0.124938
913 5 0.984912 0.389166 0.122716
872 5 0.952005 0.338645 0.124047
874 5 0.849038 0.391069 0.124136
875 5 0.88341 0.442225 0.124757
876 5 0.950814 0.440851 0.120992
878 5 0.848741 0.491602 0.123713
480 5 0.935796 0.4912 0.000604815
478 5 0.835483 0.440999 0.000480658
436 5 0.733882 0.391449 0.00223701
684 5 0.0861032 0.544855 0.0633021
688 5 0.0876199 0.645133 0.0629848
692 5 0.0870049 0.744433 0.0645197
723 5 0.216587 0.543965 0.0686732
724 5 0.284347 0.544532 0.0651793
725 5 0.118258 0.594933 0.0672039
726 5 0.185043 0.594715 0.0655258
727 5 0.218447 0.644492 0.0677702
728 5 0.285055 0.644826 0.0642563
729 5 0.120156 0.694572 0.06688
730 5 0.186353 0.693673 0.0636666
731 5 0.218439 0.743806 0.0659849
732 5 0.284824 0.74378 0.0616237
683 5 0.0190186 0.545701 0.0658814
687 5 0.0209384 0.645149 0.067182
691 5 0.0204853 0.744593 0.0679703
490 5 0.0319513 0.741742 0.00320043
488 5 0.133534 0.690011 0.00308547
523 5 0.267982 0.592219 0.00356532
524 5 0.332929 0.591318 0.00455329
527 5 0.265491 0.692824 0.00389786
483 5 0.065625 0.590147 0.00266258
765 5 0.317909 0.595119 0.0679066
769 5 0.318069 0.694699 0.066133
922 5 0.248823 0.591824 0.124482
525 5 0.16878 0.641227 0.00322708
482 5 0.0338197 0.540647 0.00615262
486 5 0.0327001 0.640344 0.00584459
526 5 0.235956 0.642583 0.000166371
484 5 0.132399 0.593007 0.00040486
487 5 0.0670957 0.689903 0.00113766
603 5 0.617476 0.545752 0.0621931
605 5 0.518144 0.594939 0.0634213
606 5 0.584491 0.595088 0.0580107
607 5 0.617805 0.645503 0.059658
609 5 0.518745 0.695768 0.0623512
610 5 0.585236 0.695636 0.0572267
611 5 0.617189 0.744778 0.062142
763 5 0.419231 0.545134 0.0654988
764 5 0.485472 0.544958 0.0606635
766 5 0.38552 0.595142 0.0641818
767 5 0.419342 0.644971 0.0659814
768 5 0.485666 0.645252 0.0608538
770 5 0.385226 0.694281 0.0624873
771 5 0.417766 0.745305 0.0628829
772 5 0.484349 0.744538 0.0583519
403 5 0.666433 0.592588 0.000187863
407 5 0.666172 0.692152 0.00216597
405 5 0.567138 0.641162 0.000241966
409 5 0.569042 0.742057 0.000414684
924 5 0.348232 0.639762 0.124456
928 5 0.350006 0.74102 0.12434
401 5 0.56547 0.543102 0.000179647
570 5 0.43276 0.740925 0.000439554
565 5 0.366414 0.641035 0.000561119
410 5 0.634457 0.742251 0.000507467
686 5 0.987081 0.595993 0.0641043
690 5 0.988063 0.694999 0.0644989
612 5 0.684812 0.745182 0.0612596
604 5 0.684391 0.545874 0.0588578
608 5 0.685129 0.645795 0.0586186
643 5 0.818037 0.546244 0.0653198
644 5 0.885918 0.546041 0.0637537
645 5 0.717308 0.596117 0.0626616
646 5 0.785706 0.5965 0.0617073
647 5 0.819017 0.645579 0.0657361
648 5 0.887068 0.645378 0.064801
649 5 0.717361 0.69499 0.0640482
650 5 0.785446 0.695032 0.0626364
651 5 0.818358 0.745056 0.0661973
685 5 0.920012 0.595343 0.0675468
689 5 0.920473 0.695583 0.0677809
652 5 0.886776 0.745173 0.0640896
441 5 0.766288 0.542068 0.00101172
449 5 0.766792 0.740187 0.00121453
443 5 0.867019 0.590609 0.00225629
804 5 0.74805 0.641515 0.124765
808 5 0.746982 0.739991 0.124253
842 5 0.845751 0.590998 0.123979
846 5 0.846907 0.69125 0.124105
448 5 0.932254 0.691491 0.000589316
445 5 0.766508 0.639147 0.00193478
446 5 0.833637 0.640588 0.00340715
447 5 0.866594 0.691635 0.00165795
485 5 0.964092 0.64091 0.00651077
444 5 0.934193 0.590151 0.000964851
489 5 0.964288 0.741034 0.00319101
481 5 0.968007 0.539775 0.00528609
696 5 0.0864371 0.844372 0.0645503
700 5 0.0854078 0.944623 0.063483
733 5 0.118853 0.79429 0.0682381
734 5 0.185336 0.794232 0.0636465
735 5 0.21782 0.844462 0.0668193
736 5 0.284188 0.844375 0.0617346
737 5 0.11856 0.894804 0.067335
738 5 0.184976 0.894169 0.0637024
739 5 0.218503 0.943768 0.0656614
740 5 0.285942 0.944866 0.0623609
741 5 0.119597 0.99448 0.0644498
742 5 0.186726 0.993646 0.0609847
695 5 0.019214 0.844744 0.0667096
699 5 0.018417 0.945194 0.0664816
499 5 0.0655425 0.99202 0.00209937
531 5 0.264581 0.789341 0.00244659
492 5 0.128917 0.791828 0.00263958
494 5 0.0288885 0.841182 0.00310784
500 5 0.132114 0.990128 0.00392427
496 5 0.13164 0.891698 0.000218715
495 5 0.0641127 0.890426 0.00471196
773 5 0.317758 0.794301 0.0635367
777 5 0.317879 0.89408 0.0646003
781 5 0.319061 0.995332 0.0663184
930 5 0.248555 0.79025 0.12279
891 5 0.082195 0.840704 0.124666
892 5 0.148482 0.841015 0.12303
931 5 0.279683 0.841247 0.122263
491 5 0.0638285 0.792561 6.54509e-05
498 5 0.0306982 0.941716 0.00201215
532 5 0.333733 0.791455 0.00169063
613 5 0.516881 0.794638 0.0559742
614 5 0.584419 0.794563 0.058226
615 5 0.615918 0.844359 0.0628877
617 5 0.517048 0.894644 0.0617471
618 5 0.584998 0.895176 0.059185
619 5 0.616842 0.944672 0.0646291
621 5 0.517481 0.994202 0.063655
622 5 0.584716 0.994528 0.0614956
774 5 0.384151 0.794472 0.0583891
775 5 0.416288 0.844472 0.0616147
776 5 0.482989 0.84483 0.0580383
778 5 0.384131 0.895213 0.0600158
779 5 0.41828 0.94497 0.0642798
780 5 0.484665 0.945007 0.0594413
782 5 0.386094 0.995726 0.0634051
573 5 0.366336 0.84178 0.000731709
411 5 0.666151 0.792436 0.00247783
932 5 0.348232 0.839749 0.123352
936 5 0.347018 0.939269 0.122693
972 5 0.551122 0.841699 0.122708
974 5 0.447906 0.891357 0.123403
976 5 0.552269 0.940452 0.124555
415 5 0.664093 0.891089 0.00185375
694 5 0.987194 0.794209 0.0639635
698 5 0.98607 0.894976 0.06307
702 5 0.985641 0.994312 0.0624573
616 5 0.683573 0.84396 0.0620332
620 5 0.684397 0.94537 0.0642513
653 5 0.716302 0.794525 0.0657844
654 5 0.783886 0.794849 0.0624375
655 5 0.817596 0.845154 0.0638357
656 5 0.885757 0.844263 0.0617304
657 5 0.716808 0.894218 0.0658772
658 5 0.784133 0.894918 0.0616855
659 5 0.818076 0.943923 0.0654349
660 5 0.88521 0.944313 0.0619199
661 5 0.717598 0.994996 0.068601
662 5 0.784982 0.994744 0.0647767
693 5 0.919601 0.79503 0.0655142
697 5 0.918251 0.894304 0.0651561
701 5 0.918302 0.994389 0.0658531
456 5 0.929259 0.891062 0.00390848
451 5 0.864209 0.792377 0.00101814
497 5 0.963145 0.941805 0.00596921
460 5 0.932084 0.992114 0.00248771
816 5 0.7506 0.937714 0.124726
459 5 0.865158 0.991193 0.00377834
453 5 0.764088 0.841163 0.00337477
458 5 0.830176 0.940116 0.00328587
420 5 0.729883 0.991391 0.000706569
902 5 0.0482277 0.0908388 0.129116
903 5 0.0830943 0.140606 0.129928
941 5 0.180198 0.0892952 0.125139
942 5 0.247274 0.0881001 0.128721
943 5 0.282469 0.138619 0.125903
945 5 0.18287 0.188524 0.126889
947 5 0.284225 0.240982 0.125001
900 5 0.148687 0.0430556 0.131121
939 5 0.281164 0.0371418 0.126393
899 5 0.0815883 0.0409307 0.129017
1001 3 0.181725 0.044848 0.226563
1002 4 0.134211 0.0544643 0.217479
1003 4 0.229238 0.0352317 0.235646
1013 3 0.181725 0.226909 0.226563
1014 4 0.173583 0.238438 0.245853
1015 4 0.189866 0.215379 0.207272
1577 1 0.0604995 0.134263 0.183698
1578 2 0.0971621 0.111678 0.183824
1579 2 0.0692371 0.161695 0.194978
1580 1 0.30541 0.14054 0.187624
1581 2 0.27429 0.144943 0.199511
1582 2 0.283748 0.122152 0.175365
944 5 0.349305 0.140561 0.130685
940 5 0.347904 0.0395923 0.125066
821 5 0.582313 0.0924337 0.133528
825 5 0.585228 0.189412 0.132537
981 5 0.379517 0.0891587 0.131261
982 5 0.448178 0.0891097 0.128466
983 5 0.482672 0.139916 0.132612
984 5 0.550351 0.140341 0.12907
985 5 0.384818 0.190164 0.127135
986 5 0.450442 0.190267 0.132954
987 5 0.48501 0.238338 0.128178
988 5 0.550462 0.237698 0.134717
980 5 0.546912 0.0421879 0.131571
979 5 0.482059 0.0371484 0.12792
822 5 0.648665 0.0914578 0.130217
826 5 0.652461 0.189241 0.128919
1004 3 0.393908 0.044848 0.226563
1005 4 0.410285 0.0650999 0.209425
1006 4 0.377531 0.0245961 0.2437
1007 3 0.606092 0.044848 0.226563
1008 4 0.584279 0.00181034 0.226546
1009 4 0.627905 0.0878857 0.226579
1016 3 0.393908 0.226909 0.226563
1017 4 0.342632 0.233931 0.220234
1018 4 0.445185 0.219887 0.232891
1019 3 0.606092 0.226909 0.226563
1020 4 0.557932 0.237536 0.218175
1021 4 0.654252 0.216281 0.23495
1583 1 0.512349 0.142777 0.183433
1584 2 0.517921 0.131696 0.199223
1585 2 0.469729 0.133162 0.179844
901 5 0.981857 0.08812 0.127878
905 5 0.982235 0.190199 0.127821
823 5 0.682946 0.139122 0.131783
827 5 0.682479 0.242048 0.133655
819 5 0.68114 0.0410766 0.132935
824 5 0.750375 0.141918 0.129567
828 5 0.749899 0.241362 0.130336
861 5 0.782527 0.0913873 0.131817
862 5 0.850122 0.0897447 0.129171
863 5 0.883285 0.139629 0.131887
864 5 0.950744 0.139168 0.130473
865 5 0.782845 0.192398 0.133191
866 5 0.850744 0.190989 0.128099
867 5 0.883618 0.242325 0.129873
868 5 0.950064 0.239849 0.125418
820 5 0.749012 0.0402567 0.131668
860 5 0.950146 0.0372064 0.130173
859 5 0.883023 0.0388887 0.130247
1010 3 0.818275 0.044848 0.226563
1011 4 0.767113 0.0529009 0.232789
1012 4 0.869438 0.0367951 0.220336
1022 3 0.818275 0.226909 0.226563
1024 4 0.840668 0.185746 0.221504
1586 1 0.70077 0.123484 0.187325
1587 2 0.745889 0.123085 0.187713
1588 2 0.689892 0.161067 0.187461
1589 1 0.911018 0.126071 0.185472
1590 2 0.95192 0.130829 0.178749
1591 2 0.910164 0.150736 0.19828
949 5 0.182307 0.290337 0.125774
915 5 0.0830802 0.439395 0.12715
916 5 0.15049 0.440782 0.12571
918 5 0.0504475 0.490795 0.126412
951 5 0.282103 0.340842 0.127718
953 5 0.181465 0.389602 0.129034
954 5 0.249446 0.391647 0.12638
955 5 0.282798 0.440781 0.129002
957 5 0.18108 0.492002 0.129754
958 5 0.250215 0.491486 0.125178
1025 3 0.181725 0.40897 0.226563
1026 4 0.165657 0.437776 0.211805
1027 4 0.197792 0.380163 0.24132
1592 1 0.0881936 0.318808 0.192445
1593 2 0.0432884 0.317417 0.194005
1594 2 0.0954157 0.317592 0.176049
1595 1 0.290111 0.310202 0.181648
1596 2 0.298657 0.297383 0.197011
1597 2 0.274681 0.346234 0.183841
1607 1 0.0629595 0.490373 0.190172
1608 2 0.105433 0.481743 0.185943
1612 2 0.319926 0.485356 0.189723
952 5 0.349362 0.340489 0.127246
956 5 0.349976 0.439198 0.126232
829 5 0.583402 0.288607 0.133538
989 5 0.383173 0.289307 0.128428
990 5 0.449626 0.288602 0.126608
833 5 0.584041 0.391649 0.133269
837 5 0.58224 0.491739 0.134187
991 5 0.482283 0.337598 0.13148
992 5 0.549303 0.340232 0.130258
993 5 0.383392 0.389737 0.130959
994 5 0.451974 0.391531 0.128226
995 5 0.482716 0.442406 0.131199
996 5 0.550304 0.442008 0.129295
997 5 0.3789 0.491006 0.129597
998 5 0.447162 0.490632 0.130773
830 5 0.648849 0.291724 0.130326
834 5 0.652043 0.390534 0.134368
838 5 0.649247 0.492369 0.133986
1028 3 0.393908 0.40897 0.226563
1029 4 0.394218 0.370148 0.237878
1030 4 0.393598 0.447791 0.215247
1031 3 0.606092 0.40897 0.226563
1032 4 0.587495 0.407789 0.245495
1033 4 0.624689 0.41015 0.20763
1598 1 0.517126 0.320577 0.189722
1599 2 0.480043 0.314296 0.198803
1600 2 0.50283 0.318945 0.173975
1613 1 0.497137 0.484762 0.188953
917 5 0.98225 0.49161 0.126359
831 5 0.684191 0.340976 0.133926
835 5 0.68129 0.440535 0.128071
870 5 0.849079 0.290218 0.127028
869 5 0.78281 0.290067 0.132335
832 5 0.750643 0.340166 0.128197
836 5 0.748501 0.440173 0.125236
871 5 0.884925 0.340419 0.12742
873 5 0.782468 0.390962 0.128304
877 5 0.78107 0.491149 0.127097
1023 4 0.795883 0.268072 0.231621
1034 3 0.818275 0.40897 0.226563
1035 4 0.774927 0.436619 0.229734
1036 4 0.861624 0.38132 0.223391
1601 1 0.696859 0.312649 0.190498
1602 2 0.704301 0.317554 0.174243
1603 2 0.735393 0.323616 0.197759
1604 1 0.914414 0.310563 0.182753
1605 2 0.920291 0.300101 0.198606
1606 2 0.938398 0.343154 0.181141
1618 2 0.692099 0.481574 0.195685
1620 2 0.907152 0.473777 0.191671
919 5 0.082731 0.541442 0.12954
959 5 0.282476 0.542878 0.127233
920 5 0.148666 0.541198 0.127091
882 5 0.0499742 0.59225 0.128005
883 5 0.0811727 0.641938 0.131754
884 5 0.147678 0.642752 0.129328
886 5 0.0476082 0.690879 0.127241
887 5 0.0805346 0.740067 0.128727
921 5 0.180988 0.591185 0.128857
923 5 0.281173 0.638854 0.129336
925 5 0.178369 0.692748 0.130783
926 5 0.246134 0.690451 0.126044
927 5 0.28206 0.741202 0.126395
888 5 0.148053 0.742037 0.126362
1037 3 0.181725 0.59103 0.226563
1038 4 0.185731 0.54447 0.224513
1039 4 0.177718 0.637591 0.228612
1051 4 0.227543 0.749962 0.221823
1609 2 0.0585063 0.527886 0.186385
1610 1 0.288207 0.503725 0.180912
1611 2 0.255317 0.510918 0.191866
1622 1 0.0621742 0.671638 0.188691
1623 2 0.10414 0.671477 0.194807
1624 2 0.0605838 0.703069 0.179001
1625 1 0.273637 0.683675 0.191771
1626 2 0.27307 0.669045 0.176386
1627 2 0.316744 0.693462 0.194343
960 5 0.348771 0.541765 0.12558
999 5 0.480702 0.539697 0.128517
1000 5 0.547767 0.540182 0.132558
801 5 0.57997 0.590166 0.131594
805 5 0.581635 0.689201 0.132166
961 5 0.384204 0.590843 0.127209
962 5 0.450508 0.590087 0.127312
963 5 0.481355 0.640138 0.129406
964 5 0.549038 0.639032 0.127934
965 5 0.38027 0.689906 0.128209
966 5 0.448432 0.689766 0.126219
967 5 0.481604 0.740081 0.12875
968 5 0.548488 0.739636 0.128866
802 5 0.646647 0.592948 0.127349
806 5 0.64911 0.692551 0.129291
1040 3 0.393908 0.59103 0.226563
1041 4 0.360854 0.577241 0.241477
1042 4 0.426963 0.60482 0.211648
1043 3 0.606092 0.59103 0.226563
1044 4 0.569 0.591278 0.211762
1045 4 0.643183 0.590783 0.241363
1054 4 0.432367 0.747935 0.235971
1614 2 0.534209 0.500853 0.182459
1615 2 0.468653 0.514387 0.191088
1628 1 0.511053 0.694581 0.186756
1629 2 0.522896 0.658068 0.190169
1630 2 0.46605 0.693533 0.185575
881 5 0.981601 0.591979 0.129545
885 5 0.981288 0.693757 0.130153
839 5 0.680388 0.543755 0.132165
803 5 0.681911 0.641612 0.129057
807 5 0.681945 0.742676 0.131178
879 5 0.881368 0.540907 0.126496
880 5 0.948438 0.542263 0.125743
840 5 0.746836 0.541295 0.126227
841 5 0.779597 0.591718 0.127494
843 5 0.879267 0.640954 0.127329
844 5 0.948024 0.642957 0.127554
845 5 0.781202 0.691955 0.127088
847 5 0.878294 0.739926 0.128085
848 5 0.948272 0.742253 0.126406
1046 3 0.818275 0.59103 0.226563
1047 4 0.764073 0.584955 0.225861
1048 4 0.872478 0.597106 0.227264
1616 1 0.727727 0.50264 0.190956
1617 2 0.716724 0.515786 0.175859
1619 1 0.936483 0.503159 0.192424
1621 2 0.929467 0.523064 0.178405
1631 1 0.711054 0.667765 0.184641
1632 2 0.74795 0.689513 0.186765
1633 2 0.677546 0.688905 0.191094
1634 1 0.913597 0.669242 0.187521
1635 2 0.957155 0.671559 0.19176
1636 2 0.90235 0.705382 0.183219
890 5 0.0499086 0.790877 0.126698
929 5 0.182477 0.791323 0.127441
894 5 0.0497269 0.88963 0.125875
895 5 0.0829683 0.939816 0.127542
896 5 0.149937 0.94058 0.129996
898 5 0.0489602 0.98963 0.131162
933 5 0.182941 0.892037 0.125085
934 5 0.248708 0.891407 0.129677
935 5 0.279833 0.939993 0.125338
937 5 0.180594 0.991778 0.12847
938 5 0.248463 0.988781 0.130413
1049 3 0.181725 0.773091 0.226563
1050 4 0.135906 0.796221 0.231302
1061 3 0.181725 0.955152 0.226563
1062 4 0.2199 0.92568 0.233494
1063 4 0.143549 0.984624 0.219631
1637 1 0.0574492 0.86172 0.187192
1638 2 0.0903123 0.838151 0.181952
1639 2 0.0791375 0.892494 0.193357
1640 1 0.290488 0.855597 0.181876
1641 2 0.304041 0.847315 0.197323
1642 2 0.268919 0.889453 0.183301
969 5 0.382245 0.789852 0.128168
970 5 0.448402 0.789615 0.125765
809 5 0.581974 0.790343 0.126589
813 5 0.58456 0.890084 0.127765
817 5 0.580385 0.991057 0.13038
971 5 0.482909 0.841344 0.126182
973 5 0.381437 0.889967 0.127634
975 5 0.484531 0.939085 0.126326
977 5 0.382766 0.98987 0.125171
978 5 0.449341 0.986949 0.128696
810 5 0.647438 0.792454 0.127654
814 5 0.649134 0.891413 0.125513
818 5 0.648042 0.990954 0.128607
1052 3 0.393908 0.773091 0.226563
1053 4 0.355449 0.798247 0.217154
1055 3 0.606092 0.773091 0.226563
1056 4 0.597617 0.785699 0.207417
1057 4 0.614567 0.760484 0.245708
1064 3 0.393908 0.955152 0.226563
1065 4 0.350278 0.927464 0.224044
1066 4 0.437538 0.98284 0.229081
1067 3 0.606092 0.955152 0.226563
1068 4 0.642052 0.979415 0.215523
1069 4 0.570132 0.930889 0.237602
1643 1 0.48936 0.856845 0.18293
1644 2 0.477199 0.883998 0.1939
1645 2 0.533442 0.851521 0.18567
893 5 0.981975 0.890387 0.129906
897 5 0.98245 0.988163 0.126724
811 5 0.679496 0.842056 0.128549
815 5 0.682278 0.938848 0.129636
849 5 0.77862 0.789139 0.127858
850 5 0.845129 0.789714 0.125827
889 5 0.98354 0.789809 0.132206
812 5 0.748352 0.839915 0.126238
851 5 0.882393 0.837955 0.128572
852 5 0.950035 0.838894 0.126476
853 5 0.783788 0.889392 0.128153
854 5 0.849876 0.888872 0.125794
855 5 0.882038 0.939213 0.129656
856 5 0.947901 0.939844 0.125837
857 5 0.781752 0.987916 0.128934
858 5 0.850401 0.989839 0.126729
1058 3 0.818275 0.773091 0.226563
1059 4 0.861677 0.770474 0.238767
1060 4 0.774874 0.775708 0.214358
1070 3 0.818275 0.955152 0.226563
1071 4 0.779637 0.985086 0.232742
1072 4 0.856914 0.925218 0.220383
1646 1 0.714844 0.859139 0.18114
1647 2 0.676131 0.870532 0.188146
1648 2 0.745576 0.862693 0.193214
1649 1 0.90897 0.855493 0.187866
1650 2 0.950578 0.845334 0.192605
1651 2 0.913554 0.891538 0.182029
1073 3 0.181725 0.044848 0.304688
1074 4 0.132506 0.025292 0.302089
1075 4 0.230943 0.064404 0.307286
1085 3 0.181725 0.226909 0.304688
1086 4 0.127058 0.227912 0.305191
1087 4 0.236391 0.225906 0.304184
1146 4 0.19022 0.00881073 0.370296
1158 4 0.132702 0.223759 0.373983
1652 1 0.0717451 0.123787 0.261501
1653 2 0.0726239 0.161506 0.257749
1654 2 0.0825294 0.122343 0.277626
1655 1 0.273277 0.127139 0.26382
1656 2 0.313388 0.114749 0.269276
1657 2 0.276784 0.165748 0.263779
1727 1 0.0653932 0.129821 0.348751
1728 2 0.0702354 0.167099 0.344618
1729 2 0.0912703 0.110715 0.337881
1730 1 0.286095 0.147016 0.348518
1731 2 0.290216 0.108788 0.350698
1732 2 0.287138 0.151831 0.332034
1076 3 0.393908 0.044848 0.304688
1077 4 0.342934 0.0568603 0.299516
1078 4 0.444883 0.0328357 0.309859
1079 3 0.606092 0.044848 0.304688
1080 4 0.566169 0.0418446 0.290982
1081 4 0.646015 0.0478515 0.318393
1088 3 0.393908 0.226909 0.304688
1089 4 0.350537 0.228893 0.292447
1090 4 0.43728 0.224925 0.316928
1091 3 0.606092 0.226909 0.304688
1092 4 0.620812 0.187036 0.295553
1150 4 0.42549 0.0769158 0.373813
1153 4 0.644941 0.0223963 0.372413
1165 4 0.644909 0.233662 0.368924
1658 1 0.511688 0.145658 0.262487
1659 2 0.519635 0.109587 0.26778
1660 2 0.468675 0.15239 0.266609
1733 1 0.505127 0.120899 0.342701
1734 2 0.522159 0.152856 0.335716
1735 2 0.472713 0.133881 0.352834
1082 3 0.818275 0.044848 0.304688
1083 4 0.779125 0.0672841 0.314939
1084 4 0.857426 0.022412 0.294436
1094 3 0.818275 0.226909 0.304688
1095 4 0.780961 0.192623 0.304098
1661 1 0.69966 0.124295 0.265719
1662 2 0.744375 0.120961 0.263972
1663 2 0.692517 0.16238 0.267184
1664 1 0.910291 0.130204 0.269257
1665 2 0.947327 0.111331 0.264295
1666 2 0.915485 0.166102 0.263323
1736 1 0.714064 0.150694 0.341496
1737 2 0.714085 0.118033 0.332567
1738 2 0.708402 0.138907 0.357188
1739 1 0.916007 0.130047 0.338251
1740 2 0.943409 0.11146 0.348774
1741 2 0.913686 0.166129 0.344225
1097 3 0.181725 0.40897 0.304688
1098 4 0.127918 0.40236 0.306933
1099 4 0.235531 0.415579 0.302442
1667 1 0.0587902 0.311903 0.266528
1668 2 0.0981767 0.297191 0.271627
1669 2 0.0699319 0.344724 0.25872
1670 1 0.27536 0.306318 0.265353
1671 2 0.320008 0.303062 0.267342
1672 2 0.268082 0.344439 0.26418
1682 1 0.0703143 0.487254 0.269122
1686 2 0.264024 0.487028 0.27437
1687 2 0.318509 0.498614 0.258132
1742 1 0.0605481 0.308875 0.343699
1743 2 0.0673955 0.342056 0.33551
1744 2 0.0989558 0.302887 0.352041
1745 1 0.276723 0.30536 0.34415
1746 2 0.3218 0.305729 0.343337
1747 2 0.264926 0.342729 0.343763
1758 2 0.0828577 0.488253 0.331433
1762 2 0.27648 0.479144 0.35306
1093 4 0.591372 0.266782 0.313822
1100 3 0.393908 0.40897 0.304688
1101 4 0.346821 0.406849 0.294481
1102 4 0.440995 0.41109 0.314894
1103 3 0.606092 0.40897 0.304688
1104 4 0.552046 0.416179 0.304574
1105 4 0.660138 0.40176 0.304801
1673 1 0.501253 0.30219 0.265929
1674 2 0.534636 0.328067 0.267259
1675 2 0.46411 0.323562 0.263688
1688 1 0.486587 0.489192 0.265342
1689 2 0.531001 0.483075 0.2667
1748 1 0.492612 0.316892 0.349945
1749 2 0.509245 0.288211 0.340608
1750 2 0.498143 0.348715 0.340697
1764 2 0.532192 0.485799 0.346313
1096 4 0.85559 0.261195 0.305277
1106 3 0.818275 0.40897 0.304688
1107 4 0.772037 0.386522 0.309477
1108 4 0.864514 0.431418 0.299898
1179 4 0.77019 0.398237 0.374392
1676 1 0.70056 0.315926 0.260437
1677 2 0.713828 0.28956 0.271585
1678 2 0.722164 0.348333 0.264854
1679 1 0.912694 0.311087 0.261282
1680 2 0.911811 0.347526 0.266899
1681 2 0.948598 0.295204 0.268694
1691 1 0.705028 0.498292 0.25942
1692 2 0.743954 0.483998 0.265175
1694 1 0.925972 0.488849 0.270393
1751 1 0.698153 0.307707 0.343644
1752 2 0.74042 0.301939 0.338368
1753 2 0.697979 0.344173 0.349238
1754 1 0.922745 0.3137 0.337245
1755 2 0.948072 0.297027 0.348993
1756 2 0.902285 0.343092 0.345013
1766 1 0.700367 0.491305 0.340126
1767 2 0.720563 0.481826 0.35442
1770 2 0.927683 0.482459 0.354977
1109 3 0.181725 0.59103 0.304688
1110 4 0.127066 0.590926 0.303944
1111 4 0.236383 0.591135 0.305431
1123 4 0.206292 0.742638 0.317056
1683 2 0.110939 0.504126 0.269099
1684 2 0.0456444 0.508621 0.258654
1685 1 0.280917 0.514358 0.264373
1697 1 0.0633359 0.673298 0.268993
1698 2 0.078491 0.708603 0.27293
1699 2 0.0850721 0.664282 0.254952
1700 1 0.28153 0.67935 0.259358
1701 2 0.270372 0.70836 0.269572
1702 2 0.311547 0.658471 0.267945
1757 1 0.0573166 0.501623 0.343875
1759 2 0.0867249 0.510124 0.355942
1760 1 0.291314 0.513151 0.347282
1761 2 0.295655 0.507704 0.330907
1772 1 0.0726761 0.697418 0.342581
1773 2 0.112328 0.679084 0.343635
1774 2 0.0418934 0.669679 0.345034
1775 1 0.277735 0.670773 0.340794
1776 2 0.295649 0.702252 0.33371
1777 2 0.290066 0.673158 0.356747
1112 3 0.393908 0.59103 0.304688
1113 4 0.395935 0.615681 0.287567
1114 4 0.391881 0.56638 0.321808
1115 3 0.606092 0.59103 0.304688
1116 4 0.568908 0.56212 0.296673
1117 4 0.643275 0.61994 0.312702
1186 4 0.367312 0.558214 0.372259
1200 4 0.587409 0.732983 0.374936
1690 2 0.482413 0.527734 0.264832
1703 1 0.490176 0.668745 0.265125
1704 2 0.535083 0.672552 0.264794
1705 2 0.474741 0.704886 0.266956
1763 1 0.504076 0.511098 0.339162
1765 2 0.463732 0.503103 0.345775
1778 1 0.48583 0.672251 0.342729
1779 2 0.529009 0.662966 0.345474
1780 2 0.485162 0.710966 0.343046
1118 3 0.818275 0.59103 0.304688
1119 4 0.806408 0.592672 0.324334
1120 4 0.830143 0.589389 0.285041
1132 4 0.847546 0.737394 0.312089
1191 4 0.820173 0.627731 0.37028
1693 2 0.687569 0.517711 0.272281
1695 2 0.958723 0.510669 0.26383
1696 2 0.888407 0.500483 0.262651
1706 1 0.704902 0.669092 0.262828
1707 2 0.739083 0.690564 0.257094
1708 2 0.692565 0.686527 0.276954
1709 1 0.915878 0.668602 0.263935
1710 2 0.957036 0.672837 0.270508
1711 2 0.900188 0.704744 0.262432
1768 2 0.715621 0.52687 0.336704
1769 1 0.906658 0.504331 0.343657
1771 2 0.938762 0.51321 0.332616
1781 1 0.708837 0.67083 0.348358
1782 2 0.743012 0.672552 0.337529
1783 2 0.684702 0.702801 0.345363
1784 1 0.914841 0.680939 0.349533
1785 2 0.937906 0.653012 0.34176
1786 2 0.920356 0.712232 0.339956
1121 3 0.181725 0.773091 0.304688
1122 4 0.157157 0.803545 0.292319
1133 3 0.181725 0.955152 0.304688
1134 4 0.128822 0.945766 0.30784
1135 4 0.234627 0.964538 0.301535
1195 4 0.168993 0.797925 0.36638
1712 1 0.0671406 0.850104 0.265473
1713 2 0.0793447 0.872144 0.252568
1714 2 0.0804133 0.870117 0.278834
1715 1 0.283782 0.855559 0.260123
1716 2 0.2639 0.888175 0.265288
1717 2 0.315767 0.848631 0.271464
1787 1 0.0639062 0.851943 0.343585
1788 2 0.108876 0.850724 0.344899
1789 2 0.0541157 0.889699 0.342765
1790 1 0.273997 0.853713 0.344129
1791 2 0.312752 0.850162 0.335749
1792 2 0.2767 0.88849 0.351372
1124 3 0.393908 0.773091 0.304688
1125 4 0.340031 0.766356 0.306613
1126 4 0.447785 0.779827 0.302762
1127 3 0.606092 0.773091 0.304688
1128 4 0.658198 0.775428 0.298646
1129 4 0.553986 0.770754 0.310729
1136 3 0.393908 0.955152 0.304688
1137 4 0.379397 0.941286 0.323171
1138 4 0.408419 0.969018 0.286204
1139 3 0.606092 0.955152 0.304688
1140 4 0.571972 0.96115 0.320216
1141 4 0.640211 0.949154 0.289159
1197 4 0.358883 0.782268 0.367854
1718 1 0.494454 0.856037 0.271082
1719 2 0.52421 0.844975 0.259523
1720 2 0.481336 0.891354 0.26627
1793 1 0.504576 0.863691 0.337184
1794 2 0.463889 0.85779 0.343917
1795 2 0.531536 0.870884 0.35015
1130 3 0.818275 0.773091 0.304688
1131 4 0.789005 0.808788 0.297286
1142 3 0.818275 0.955152 0.304688
1143 4 0.77065 0.932294 0.306055
1144 4 0.865901 0.97801 0.30332
1203 4 0.787405 0.800024 0.370862
1721 1 0.7012 0.856365 0.269932
1722 2 0.697078 0.859189 0.253427
1723 2 0.738274 0.876811 0.273516
1724 1 0.911798 0.852681 0.266303
1725 2 0.951071 0.851029 0.258145
1726 2 0.910233 0.888656 0.272427
1796 1 0.69868 0.854917 0.341371
1797 2 0.717268 0.854282 0.356512
1798 2 0.720604 0.883166 0.333367
1799 1 0.933532 0.851538 0.341418
1800 2 0.892892 0.852246 0.348641
1801 2 0.946678 0.888582 0.341192
1145 3 0.181725 0.044848 0.382813