LAMMPS data file via write_data, version 23 Jun 2022, timestep = 125000

2251 atoms
5 atom types
2334 bonds
3 bond types
3417 angles
3 angle types
6000 dihedrals
1 dihedral types
1000 impropers
1 improper types

-10.583314884394486 10.583314884394486 xlo xhi
-12.341588764348263 12.341588764348263 ylo yhi
-24.161872808690685 24.161872808690685 zlo zhi

Masses

1 15.9994
2 1.008
3 12.0107
4 15.9994
5 12.011

Pair Coeffs # lj/cut/tip4p/long

1 0.18481 3.165
2 0 0
3 0.053649 2.8
4 0.156973 3.05
5 0.0663 3.5812

Bond Coeffs # harmonic

1 0 0.9572
2 2566.7 1.16
3 610 1.42

Angle Coeffs # harmonic

1 0 104.52
2 295.4 180
3 80 120

Dihedral Coeffs # opls

1 0 7.25 0 0

Improper Coeffs # harmonic

1 5 180

Atoms # full

705 4 5 0 -9.65675255794575 -8.253498805434727 -20.54353150476724 1 1 0
701 4 5 0 -9.689464637584692 -10.69595373456168 -20.357054523241953 1 1 0
706 4 5 0 -8.22117099726855 -8.243334949625098 -20.652818165628265 1 1 0
702 4 5 0 -8.261315835075498 -10.704861182809069 -20.538444392735233 1 1 0
703 4 5 0 -7.530669456039016 -9.471029866777002 -20.447716669446958 1 1 0
704 4 5 0 -6.099758475906047 -9.461011022823145 -20.642718892185165 1 1 0
745 4 5 0 -5.398502109828411 -8.23555452521534 -20.44009163767743 1 1 0
741 4 5 0 -5.4257508546803805 -10.694957679871571 -20.43263967234249 1 1 0
707 4 5 0 -7.526180439634672 -7.005417934270632 -20.507201793064002 1 1 0
708 4 5 0 -6.099828461171697 -7.002943263588369 -20.583305493793173 1 1 0
746 4 5 0 -3.983863731876524 -8.216001614104584 -20.645747666403395 1 1 0
742 4 5 0 -4.0043290245250445 -10.691757625684467 -20.636738692526084 1 1 0
1584 200 2 0.527 -7.357726472825135 -9.409956368462918 -13.587918017851912 0 -1 0
1583 200 1 -1.054 -6.43516133576086 -9.659749760290559 -13.639918625939288 0 -1 0
885 5 5 0 -8.230217843394431 -10.666588368355848 -16.836455312337065 1 1 0
1585 200 2 0.527 -6.450655490421875 -10.603284848498435 -13.800858463876482 0 -1 0
848 5 5 0 -8.91326998721293 -9.423782718585805 -17.009804190672114 1 1 0
889 5 5 0 -8.222009578615662 -8.175514410016309 -16.872518008525542 1 1 0
886 5 5 0 -6.807108942734375 -10.664864384573782 -16.98448646263527 1 1 0
890 5 5 0 -6.801433398376512 -8.189677619141321 -17.03233571690187 1 1 0
887 5 5 0 -6.114830349975834 -9.424950587059497 -16.82770340584499 1 1 0
891 5 5 0 -6.109607684284282 -6.941888679382943 -16.904871478588372 1 1 0
852 5 5 0 -8.902938520159475 -6.92568945037477 -17.102477479539473 1 1 0
888 5 5 0 -4.711485262509809 -9.425638594432789 -17.04841168244953 1 1 0
892 5 5 0 -4.698048516621079 -6.938684056835588 -17.11016144850724 1 1 0
1601 206 1 -1.054 -8.958893453258831 -8.969717866033873 -13.318539507252495 1 0 0
925 5 5 0 -4.017540060801519 -10.660730382365834 -16.866992421219667 1 1 0
929 5 5 0 -4.012993804712904 -8.18097376666206 -16.952125477015088 1 1 0
1602 206 2 0.527 -9.863397988558052 -9.232263774216221 -13.489336833162723 1 0 0
1603 206 2 0.527 -8.960186609660118 -8.018741372704824 -13.428285941532542 1 0 0
1302 106 4 -0.35 -4.814661620442731 -6.742878063008993 -13.272115697126937 -1 1 0
664 4 5 0 -10.38516097629484 -9.485754234691806 -20.590088247138908 1 1 0
668 4 5 0 -10.35717589706108 -7.032920987882531 -20.798477585091476 1 1 0
851 5 5 0 -10.338819327849823 -6.913759412602661 -17.060914669680308 1 1 0
847 5 5 0 -10.343752334602202 -9.401087997928325 -16.902829493055364 1 1 0
700 4 5 0 -6.131903376986866 -11.924754355806119 -20.565791450624925 1 1 0
884 5 5 0 -4.698264390476533 -11.902340018318156 -17.037075612313593 1 1 0
660 4 5 0 -10.395467944625587 -11.918615532742637 -20.55571569342179 1 1 0
844 5 5 0 -8.93515358976847 -11.877100147801839 -17.10599239323978 1 1 0
699 4 5 0 -7.548190941729732 -11.929068854306214 -20.413264885805493 1 1 0
843 5 5 0 -10.370768235856309 -11.876273852081836 -17.019647263377266 1 1 0
883 5 5 0 -6.117970928250572 -11.908775117913397 -16.876403791215733 1 1 0
1124 47 3 0.7 -1.3988806272483671 -0.5521146578034006 -13.62937413256215 0 0 0
593 3 5 0 -2.726191723789756 -8.202217220303186 -23.91417653351495 1 1 0
1395 137 4 -0.35 -1.6202020616005282 -11.921442732109425 -13.380077192956444 1 1 0
592 3 5 0 0.6639535456465726 -9.332094423376402 -23.910312203938055 1 1 0
555 3 5 0 -4.943292206755732 -7.0200983992115695 -23.90178886667669 1 1 0
1632 216 2 0.527 5.591991532933662 -0.24981019331309362 -13.69144322244977 0 0 0
560 3 5 0 -3.4904082639715543 -4.493058518431121 -24.06429580298769 1 1 0
1909 308 2 0.527 9.120395783389405 -0.34679231007317846 -14.231187810173166 -1 0 0
1394 137 3 0.7 -2.7773217505871264 -11.877328315369892 -13.459028610497423 1 1 0
1301 106 3 0.7 -4.170071704155362 -7.677376066617611 -13.513231903978735 -1 1 0
599 3 5 0 -0.5573705750675799 -4.529386559362245 -24.105902934979095 1 1 0
1303 106 4 -0.35 -3.5204680712667216 -8.607932764375985 -13.755451883154949 -1 1 0
743 4 5 0 -3.282079900131712 -9.453347951186775 -20.552377974469994 1 1 0
963 5 5 0 2.3395653765194897 -11.911728455992838 -16.904094597973764 1 1 0
779 4 5 0 0.9632085561162125 -11.958426650558328 -20.381210065456003 1 1 0
747 4 5 0 -3.275560685296532 -6.985256250514115 -20.452077094406068 1 1 0
744 4 5 0 -1.859112799318737 -9.462014312644047 -20.75054808505536 1 1 0
785 4 5 0 -1.161777418823931 -8.234329090151311 -20.516382663080094 1 1 0
781 4 5 0 -1.1734674036526407 -10.700505590745843 -20.54083725460886 1 1 0
782 4 5 0 0.2676052646165825 -10.72443998478051 -20.58488516261653 1 1 0
786 4 5 0 0.2718041347176001 -8.262953214324796 -20.548589295436777 1 1 0
783 4 5 0 0.9705582841202425 -9.496461078879275 -20.373212392838603 1 1 0
748 4 5 0 -1.8511923570549573 -6.973437766848689 -20.672024670281246 1 1 0
787 4 5 0 0.9579222578079474 -7.021606426324473 -20.400582021809978 1 1 0
784 4 5 0 2.3995377481001583 -9.495490834944746 -20.55432081728837 1 1 0
788 4 5 0 2.376499289651374 -7.028893770257295 -20.61410827006085 1 1 0
625 4 5 0 3.099867415773149 -8.250067588877101 -20.471218030435548 0 1 0
621 4 5 0 3.0998078062182763 -10.735330553337826 -20.410126056071846 0 1 0
1314 110 4 -0.35 1.4922246163283912 -11.394995409393788 -13.184856003049358 0 1 0
926 5 5 0 -2.5974288992696266 -10.67021770151521 -17.04281859916839 1 1 0
927 5 5 0 -1.9152730167487846 -9.429243504542468 -16.904424200355415 1 1 0
930 5 5 0 -2.594424601287068 -8.19084063163558 -17.131929544469866 1 1 0
928 5 5 0 -0.4868407983910412 -9.451311072515333 -17.0236049633408 1 1 0
969 5 5 0 0.2128893317229199 -8.21550596181486 -16.855846643827487 1 1 0
965 5 5 0 0.22302008925920092 -10.67225902973939 -16.79862488075346 1 1 0
966 5 5 0 1.6350609876465612 -10.678616008629287 -17.03016795715031 1 1 0
970 5 5 0 1.6445482348043967 -8.209223883027382 -16.924279314749356 1 1 0
931 5 5 0 -1.8927813082259348 -6.957886133809397 -16.94996847183361 1 1 0
932 5 5 0 -0.4666538014230852 -6.969445835788349 -17.035335625017478 1 1 0
971 5 5 0 2.328783562385331 -6.974080938660652 -16.70593173762809 1 1 0
967 5 5 0 2.334327322675488 -9.452214897484408 -16.80655824481172 1 1 0
1313 110 3 0.7 1.3318301697731378 -10.254463207436942 -13.042597646432089 0 1 0
1315 110 4 -0.35 1.1702639494928988 -9.113671996732727 -12.906157546778894 0 1 0
923 5 5 0 -1.896604524450101 -11.90019676136613 -16.817744763873137 1 1 0
739 4 5 0 -3.3072061510642765 -11.916579388445868 -20.461408584599372 1 1 0
740 4 5 0 -1.8818745116846145 -11.934405660468322 -20.652479130233033 1 1 0
924 5 5 0 -0.4658775628445486 -11.911467715155675 -16.88392326178476 1 1 0
780 4 5 0 2.392192369630296 -11.975509385497993 -20.542626150609298 1 1 0
673 4 5 0 7.305583417938728 -3.2908966895245477 -20.588309080112907 0 1 0
677 4 5 0 7.288098038681952 -0.8381851106144556 -20.389901748358618 0 1 0
469 3 5 0 5.6268994822134495 -10.606085098013754 -24.008614102976853 0 1 0
670 4 5 0 8.709014770842707 -5.779019152200854 -20.796483455282797 0 1 0
596 3 5 0 0.7224686926863466 -6.98760419625486 -23.870499605244518 1 1 0
1088 35 3 0.7 0.21208652477118406 -6.545238961227964 -13.595571738967651 0 0 0
1089 35 4 -0.35 -0.8652572444918594 -6.882241333489713 -13.327378170275754 0 0 0
1090 35 4 -0.35 1.2886579412135983 -6.204396002434133 -13.86314079563805 0 0 0
595 3 5 0 -0.6800500339612263 -7.0020490462091 -23.828603071346794 1 1 0
630 4 5 0 4.490639856000746 -5.775611318542412 -20.693158326869483 0 1 0
589 3 5 0 -2.7698770371729378 -10.563956907593715 -24.154055806195093 1 1 0
480 3 5 0 9.244223096848948 -4.489746251402853 -24.144822633239034 0 1 0
854 5 5 0 10.120300490463556 -5.664358046417034 -17.216196317646173 0 1 0
853 5 5 0 8.695398525242638 -5.672361765407136 -17.01197865083732 0 1 0
814 5 5 0 5.863704657200614 -5.710784005697357 -17.037817260582948 0 1 0
565 3 5 0 -2.738567349741567 -0.8436828522492572 -24.06473865652683 1 0 0
1396 137 4 -0.35 -3.9339164493644176 -11.831513489510009 -13.541426225104406 1 1 0
429 3 5 0 1.4253905280121622 -10.572329999023973 -24.011828840690526 0 1 0
803 5 5 0 6.565334565302717 -11.903674355794353 -16.994589978222315 0 1 0
968 5 5 0 3.753915691352743 -9.42813998985335 -16.994874020483962 1 1 0
972 5 5 0 3.747956558997222 -6.9725305863512865 -16.88670697950821 1 1 0
663 4 5 0 9.36241081042392 -9.490976393834016 -20.41456357067077 0 1 0
667 4 5 0 9.393341158754517 -7.011193729179396 -20.545465979684128 0 1 0
666 4 5 0 8.688991258112114 -8.25648629907786 -20.63871570971856 0 1 0
662 4 5 0 8.67750453826617 -10.719767287269425 -20.632081253585774 0 1 0
661 4 5 0 7.270592812747896 -10.723710689790991 -20.519222416366965 0 1 0
665 4 5 0 7.270069991580755 -8.236742798633792 -20.512851712329187 0 1 0
624 4 5 0 6.6001503022204915 -9.478681358710128 -20.71504801681579 0 1 0
626 4 5 0 4.509943878444613 -8.229200296363773 -20.704275067803806 0 1 0
623 4 5 0 5.193327060219358 -9.466694552967532 -20.562029772588538 0 1 0
622 4 5 0 4.500928577376209 -10.717566921800437 -20.69558686389411 0 1 0
628 4 5 0 6.599291733398243 -6.998779542852663 -20.7537124293133 0 1 0
627 4 5 0 5.198321835081513 -6.993430343813157 -20.54015756699678 0 1 0
1036 17 4 -0.35 4.313617740382869 -9.677700148417433 -13.582647447526131 0 0 0
1034 17 3 0.7 4.862485519341938 -10.69399701288162 -13.471889582709315 0 0 0
1893 303 2 0.527 9.596942656855283 -9.804234327018392 -12.39725564232531 -1 0 0
1861 292 2 0.527 6.381851428902664 -7.910008032282282 -13.36057376399352 0 0 0
850 5 5 0 10.131904699159222 -8.168905554845622 -17.161655325532355 0 1 0
846 5 5 0 10.11284341179007 -10.630874717035288 -17.08349780603789 0 1 0
1859 292 1 -1.054 7.1085255430176275 -8.487988375630799 -13.127826343754323 0 0 0
1892 303 1 -1.054 9.555311243579823 -9.602995386038435 -13.332174312677724 -1 0 0
1894 303 2 0.527 8.68727214521866 -9.219253766923387 -13.456652588858512 -1 0 0
845 5 5 0 8.689181998980846 -10.652727833108473 -16.9086845338824 0 1 0
849 5 5 0 8.70172001203979 -8.163341880469318 -16.971407419881444 0 1 0
808 5 5 0 7.9947325776634095 -9.412668963523492 -17.049257816944735 0 1 0
806 5 5 0 5.87943318207174 -10.660484268631631 -17.130095507492825 0 1 0
805 5 5 0 4.452334912470558 -10.678358036140544 -16.962001921071806 0 1 0
807 5 5 0 6.571841729219937 -9.427203311058783 -16.882259851962267 0 1 0
810 5 5 0 5.8724549798656085 -8.186412174911114 -16.995099209698353 0 1 0
809 5 5 0 4.45653370678578 -8.20385882428888 -16.760998696153383 0 1 0
812 5 5 0 7.9963237707080985 -6.921707953790245 -17.130158319860122 0 1 0
811 5 5 0 6.578234083739684 -6.937810013762042 -16.864016999011604 0 1 0
1860 292 2 0.527 7.000731516588726 -8.643124667436698 -12.189414477378547 0 0 0
1035 17 4 -0.35 5.411699211357952 -11.710206702746184 -13.362256641195296 0 0 0
804 5 5 0 7.985897200219114 -11.885334861614337 -17.11530501258648 0 1 0
659 4 5 0 9.345807398289693 -11.951050635911733 -20.460492681931242 0 1 0
620 4 5 0 6.5965835475122105 -11.960620504449299 -20.712880279370474 0 1 0
619 4 5 0 5.188859045192107 -11.954536648765172 -20.522362861922062 0 1 0
1343 120 3 0.7 8.721740309241913 -6.2813128335820885 -12.444241757307372 0 1 0
964 5 5 0 3.746792129219772 -11.912632938950962 -17.167214601234864 1 1 0
1317 111 4 -0.35 4.851615828787324 -5.946901986086178 -13.589079893704936 0 1 0
813 5 5 0 4.447608165844949 -5.724706594210802 -16.801125537763177 0 1 0
590 3 5 0 -1.4325515109496099 -10.680670869553651 -24.08072589940528 1 1 0
669 4 5 0 7.293948040364686 -5.767115049762364 -20.621830693338097 0 1 0
634 4 5 0 4.487764205123897 -3.314654058476748 -20.73094310420195 0 1 0
980 5 5 0 3.7232782233633746 -2.0064912525930776 -16.969019439198057 1 1 0
636 4 5 0 6.5891096715832695 -2.053209848313802 -20.643587899375245 0 1 0
1159 58 4 -0.35 -5.868816974420023 -2.344846879108136 -13.807981175109212 0 0 0
443 3 5 0 7.701072126769322 -2.0801597521981634 -24.128318730371948 0 0 0
675 4 5 0 9.430170140955251 -2.080936799313845 -20.613092955400923 0 1 0
933 5 5 0 -4.018402366230684 -5.700311670627886 -16.909452276015635 1 1 0
893 5 5 0 -8.231263140244964 -5.67582460803363 -16.912128077278304 1 1 0
894 5 5 0 -6.808350526860956 -5.6936032444603555 -17.075834739272665 1 1 0
749 4 5 0 -5.4299149461957645 -5.759210388610827 -20.335488079710757 1 1 0
750 4 5 0 -3.996462228938624 -5.748570137004749 -20.468685609294557 1 1 0
710 4 5 0 -8.209105582714818 -5.777859603525729 -20.73919795296591 1 1 0
709 4 5 0 -9.645927000634353 -5.78819215224029 -20.68267843583065 1 1 0
1305 107 4 -0.35 -9.367620665980311 -6.139064356738602 -13.836295530146913 0 0 0
525 3 5 0 -7.123118773914086 -0.8602739074434176 -23.96998014033131 1 0 0
676 4 5 0 -10.315437420475863 -2.07202127040029 -20.778201793968577 1 1 0
1037 18 3 0.7 -9.293392039863797 -1.1898184214937295 -13.596335076603568 0 -1 0
757 4 5 0 -5.386971400281872 -0.8315187564137645 -20.36952014931671 1 1 0
717 4 5 0 -9.63238985516817 -0.8263152150242181 -20.5554504351988 1 1 0
718 4 5 0 -8.207206420023056 -0.8289388311244146 -20.652110156426367 1 1 0
713 4 5 0 -9.620465630010745 -3.322909559753592 -20.692293341743984 1 1 0
714 4 5 0 -8.18840535197149 -3.2959271118410385 -20.757665288872445 1 1 0
711 4 5 0 -7.5272578423100605 -4.534054569765695 -20.52701956224135 1 1 0
715 4 5 0 -7.505689164329355 -2.0595681028369786 -20.48189063152888 1 1 0
716 4 5 0 -6.074642169173068 -2.0543542386209968 -20.530998143456003 1 1 0
712 4 5 0 -6.10293992065084 -4.518942843295177 -20.538119283416467 1 1 0
753 4 5 0 -5.397422522386396 -3.2934260240805138 -20.373804775902524 1 1 0
758 4 5 0 -3.974710986932627 -0.8434538237743912 -20.545693899923197 1 1 0
754 4 5 0 -3.975977483249297 -3.3018482291017293 -20.5479526622606 1 1 0
1038 18 4 -0.35 -10.263925183350613 -1.7785378014053936 -13.839855009281383 0 -1 0
1306 107 4 -0.35 -8.478846697446187 -4.0023755970552575 -14.002362232474185 0 0 0
1304 107 3 0.7 -8.921752100546723 -5.070776094177821 -13.919130387580765 0 0 0
895 5 5 0 -6.13177208633923 -4.4411994359024645 -16.89631790499094 1 1 0
898 5 5 0 -6.825234000604668 -3.1852941225631604 -17.03619739989518 1 1 0
899 5 5 0 -6.115504986908959 -1.9489678299912825 -16.937064897625078 1 1 0
896 5 5 0 -4.712510805979614 -4.452353546681662 -17.055746051683286 1 1 0
900 5 5 0 -4.6964409599996175 -1.9681665972051494 -17.13724264506115 1 1 0
901 5 5 0 -8.249778104375869 -0.7057712653913306 -16.926424924869067 1 1 0
902 5 5 0 -6.819008558953435 -0.7123076416678149 -17.070459287156563 1 1 0
856 5 5 0 -8.931955730207118 -4.426744863597404 -17.102290314439585 1 1 0
897 5 5 0 -8.249303227352552 -3.1796075859044137 -16.89667218863164 1 1 0
860 5 5 0 -8.94732094023016 -1.945469667532027 -17.09713218415059 1 1 0
941 5 5 0 -3.9928921080640807 -0.7322036537566987 -16.99879182114431 1 1 0
937 5 5 0 -4.0219222219011215 -3.211684072269808 -16.89219012440363 1 1 0
431 3 5 0 3.598909918396311 -9.388990600875427 -23.987343021321198 0 1 0
1010 9 3 0.7 -3.2183809386842093 -4.258847697583279 -12.967574196132428 1 0 0
859 5 5 0 -10.381279680963557 -1.9452378394037666 -16.984906701951587 1 1 0
855 5 5 0 -10.367540242584967 -4.423746445737066 -16.995183236164173 1 1 0
672 4 5 0 -10.330386121346022 -4.554159028114134 -20.900270587257822 1 1 0
861 5 5 0 8.662749213578671 -0.7263184789374506 -16.898705538699495 0 1 0
822 5 5 0 5.847322092504111 -0.7549028078698825 -16.930930584928603 0 1 0
632 4 5 0 6.592423410275245 -4.52739933320513 -20.731118880067864 0 1 0
858 5 5 0 10.08440959670699 -3.1867038352209 -17.123506170268247 0 1 0
862 5 5 0 10.075554665400208 -0.7137275537391989 -17.13926352288204 0 1 0
1316 111 3 0.7 5.313244493704998 -4.8893925734105235 -13.469146232689212 0 1 0
821 5 5 0 4.433312309172612 -0.7890379943873516 -16.723330298637357 0 1 0
1958 325 1 -1.054 2.3188179735979872 -0.3282547385880896 -13.412835588074453 0 0 0
674 4 5 0 8.727565224446618 -3.298512414842582 -20.827073442865544 0 1 0
1126 47 4 -0.35 -2.209604357341961 -1.3714105985888398 -13.492680730216907 0 0 0
1004 7 3 0.7 8.228494594618027 -2.2998690993454396 -12.215293479626808 0 0 0
820 5 5 0 7.961097400385597 -1.9644079900857 -17.035227906097113 0 1 0
1323 113 4 -0.35 2.541693022293094 -3.3926341131260997 -13.129290735805567 -1 1 0
973 5 5 0 0.20932030984513794 -5.740240718145623 -16.75649798777212 1 1 0
934 5 5 0 -2.591889483134678 -5.7068967181218015 -17.06038359604738 1 1 0
974 5 5 0 1.638041553831659 -5.734328075025891 -16.88159228250419 1 1 0
789 4 5 0 -1.165306445841706 -5.745553469347759 -20.458821420763208 1 1 0
629 4 5 0 3.068828827306513 -5.789160623351131 -20.529043927069278 0 1 0
790 4 5 0 0.26138536082431685 -5.778758894448462 -20.60059039375026 1 1 0
755 4 5 0 -3.283169513919873 -2.0767016231775557 -20.349907105007183 1 1 0
751 4 5 0 -3.275289134006882 -4.521639847452965 -20.365093557342078 1 1 0
1012 9 4 -0.35 -3.0510369777858806 -4.424755572979441 -14.10209698134786 1 0 0
975 5 5 0 2.332697148532988 -4.496520185968762 -16.713871363186087 1 1 0
981 5 5 0 0.19616597165419236 -0.7427298608715915 -16.676525856731473 1 1 0
797 4 5 0 -1.1375764285627064 -0.8464959080609926 -20.36400550698049 1 1 0
798 4 5 0 0.2589463077976131 -0.8453453968666214 -20.624893545389956 1 1 0
752 4 5 0 -1.8654070966446987 -4.521514505657201 -20.63481486696717 1 1 0
756 4 5 0 -1.8617909475269467 -2.0640446127406147 -20.536294568477963 1 1 0
793 4 5 0 -1.1555951576730532 -3.2982343650388177 -20.46311270359287 1 1 0
794 4 5 0 0.25520827367510535 -3.3024881244226165 -20.69715732712612 1 1 0
791 4 5 0 0.9537708328037819 -4.537822498126356 -20.52891435553828 1 1 0
795 4 5 0 0.9575599410712439 -2.0780652840822924 -20.531801004174913 1 1 0
792 4 5 0 2.3643934549463914 -4.563205231897564 -20.76372526752072 1 1 0
796 4 5 0 2.36627786935186 -2.088824471311666 -20.788134893447268 1 1 0
633 4 5 0 3.0651072258468073 -3.3257309939731154 -20.630496869678726 0 1 0
637 4 5 0 3.0505742329296854 -0.856739114471857 -20.578505961929466 0 1 0
936 5 5 0 -0.47925096477667495 -4.486519334143166 -16.855564687853686 1 1 0
935 5 5 0 -1.9063298504147426 -4.4848194026863935 -16.762700314855344 1 1 0
978 5 5 0 1.6268007433576575 -3.255432204408036 -16.853140498042592 1 1 0
982 5 5 0 1.621503383308113 -0.7541563434589609 -16.808932492630817 1 1 0
977 5 5 0 0.2102912951686875 -3.250937883674702 -16.62613479274182 1 1 0
1322 113 3 0.7 1.4100943268923807 -3.2637247682042574 -13.351485853005721 -1 1 0
940 5 5 0 -0.48544342650599503 -1.998984505338214 -16.810479762964526 1 1 0
942 5 5 0 -2.5743096302354314 -0.7578887490871953 -17.064956669903083 1 1 0
979 5 5 0 2.314505100507823 -2.0045406935245644 -16.718299273716845 1 1 0
938 5 5 0 -2.591526531552029 -3.2310118458432804 -16.919519577504623 1 1 0
939 5 5 0 -1.918370116406967 -1.985279163635452 -16.72286779513255 1 1 0
1324 113 4 -0.35 0.27836421354861685 -3.137620612248984 -13.574483312964103 -1 1 0
817 5 5 0 4.4240661940379145 -3.2462887270914784 -16.856484202782426 0 1 0
558 3 5 0 -5.521614529522084 -5.7626075422683884 -23.973797780909546 1 1 0
1960 325 2 0.527 3.2375797391833316 -0.5852106749453903 -13.490819995597137 0 0 0
819 5 5 0 6.545089517847664 -1.9925582980536962 -16.848300083178476 0 1 0
1157 58 3 0.7 -5.4672234516574045 -1.6131351847405337 -13.002411010381001 0 0 0
671 4 5 0 9.41684722004366 -4.54160815043718 -20.700717682765205 0 1 0
1633 216 2 0.527 5.5362383053774735 -1.7431128832762646 -13.934873339147245 0 0 0
818 5 5 0 5.8414862556443055 -3.2314111606536216 -17.024327442319997 0 1 0
857 5 5 0 8.659091171101434 -3.200767724459828 -16.929921151924404 0 1 0
635 4 5 0 5.164861657120833 -2.074925245836173 -20.505225177401794 0 1 0
1006 7 4 -0.35 7.888711807434717 -1.9511871598626058 -13.268639247460486 0 0 0
638 4 5 0 4.477386488194977 -0.8416106455394949 -20.69055902399352 0 1 0
1631 216 1 -1.054 5.011166714664608 -1.0073359497563654 -13.61980540405933 0 0 0
678 4 5 0 8.711481653607407 -0.835318724542196 -20.649885474653594 0 1 0
1345 120 4 -0.35 8.18413976099528 -5.520171645392028 -13.135939599878027 0 1 0
1039 18 4 -0.35 -8.32381168812553 -0.600423470774043 -13.353029627542767 0 -1 0
1318 111 4 -0.35 5.774756924080155 -3.830997257143517 -13.358621633629118 0 1 0
976 5 5 0 3.737562184643483 -4.491563886597693 -16.963808837116275 1 1 0
631 4 5 0 5.17228106488847 -4.54008777355396 -20.50491401268667 0 1 0
815 5 5 0 6.547436937254034 -4.464472737277086 -16.903251113654072 0 1 0
816 5 5 0 7.964354741070061 -4.440858892542771 -17.104643277148938 0 1 0
552 3 5 0 -3.4637148395394135 -9.428135665872363 -23.85413944157751 1 1 0
594 3 5 0 -1.4404455200981339 -8.182311259696935 -24.130857460692354 1 1 0
1932 316 2 0.527 3.1140998286338117 -6.499835502522614 -12.351625275753584 0 0 0
1158 58 4 -0.35 -5.062558750107851 -0.8867509247314871 -12.192806223151356 0 0 0
428 3 5 0 5.042334315864034 -11.95415138157037 -23.835163318559832 0 1 0
430 3 5 0 2.865195235011763 -10.692913129072997 -23.780307025192823 0 1 0
486 3 5 0 -9.90945861302922 -0.8334830511153264 -24.03367316720092 1 0 0
557 3 5 0 -7.006645825043885 -5.758138500602241 -24.117397387435428 1 1 0
433 3 5 0 1.4320306235728957 -8.138633825094118 -23.975767899497367 0 1 0
403 3 5 0 3.476913253847398 -1.9703269192728836 -24.12438446719968 0 0 0
434 3 5 0 2.880731720348523 -8.167546340905842 -23.976328694475587 0 1 0
566 3 5 0 -1.2760044158457262 -0.7162997513272913 -24.006406847046957 1 0 0
553 3 5 0 -7.023871090134026 -8.267225153370234 -23.906829476503358 1 1 0
526 3 5 0 -5.677900379970019 -0.7914070682509742 -24.15320733739728 1 0 0
483 3 5 0 -9.114716698516359 -1.9905524921293143 -24.081585652135782 1 0 0
485 3 5 0 9.889457157305912 -0.8389688779521371 -23.90568814012524 0 0 0
600 3 5 0 0.8150643418521639 -4.5456461227702345 -24.024603486526406 1 1 0
404 3 5 0 4.912952680542018 -2.0004652630034183 -24.027860699494862 0 0 0
564 3 5 0 0.756430031656496 -2.0150836074472114 -23.985529702873283 1 0 0
427 3 5 0 3.6418754849162944 -11.940937236383359 -23.92479051340319 0 1 0
587 3 5 0 -0.6351247904169508 -11.859852253650631 -24.083240635089634 1 1 0
554 3 5 0 -5.566171684717863 -8.23888040406888 -23.763799348171933 1 1 0
482 3 5 0 -9.764607873277233 -3.266967877085012 -24.1072694207157 1 0 0
1618 211 2 0.527 -6.904190334187945 -8.782064453411765 -8.536895553368774 1 0 0
1864 293 2 0.527 -5.121107031641954 -9.461188265358194 -9.55590418017832 0 0 0
1616 211 1 -1.054 -7.830782397873914 -8.569728170974468 -8.42478686424499 1 0 0
1862 293 1 -1.054 -5.188436535936246 -9.195582090702404 -8.63871953737589 0 0 0
1684 233 2 0.527 -5.512202188226601 -10.748626279929265 -7.82772195029769 0 0 0
1682 233 1 -1.054 -5.618187334365003 -11.599526182392573 -7.402142015371751 0 0 0
1683 233 2 0.527 -6.488644658641818 -11.562787095029954 -7.005680291971636 0 0 0
1863 293 2 0.527 -4.3983133667349765 -8.679141396796958 -8.479775370964331 0 0 0
1665 227 2 0.527 -8.38793620177236 -8.862690201451471 -6.804420999317838 1 0 0
1617 211 2 0.527 -8.243285872284401 -8.85821803350343 -9.23897879023714 1 0 0
1593 203 2 0.527 -8.564275658896431 -10.68774150737455 -10.728410256000247 0 0 0
1592 203 1 -1.054 -9.11078811502992 -9.901965117132274 -10.713346399464555 0 0 0
1622 213 1 -1.054 -4.964337140442215 -10.043575316223178 -11.200940741619894 0 0 0
1623 213 2 0.527 -4.46002193941216 -10.857177072631448 -11.209249019585206 0 0 0
1594 203 2 0.527 -8.974777434640268 -9.49851936731677 -11.570698758691917 0 0 0
1664 227 1 -1.054 -8.599961483289272 -9.164667274447906 -5.921154033180944 1 0 0
1662 226 2 0.527 -8.376696634336792 -10.85491820708453 -6.087676581677847 1 0 0
1666 227 2 0.527 -8.126325051407125 -8.566642595519884 -5.3429214794500695 1 0 0
1721 246 1 -1.054 -4.452185217028496 -7.235542341381489 -1.7740701022520184 1 0 0
1295 104 3 0.7 -4.3243208897274155 -8.062542151087193 -4.816571875386035 1 0 0
1296 104 4 -0.35 -5.15073583968821 -8.862631147108129 -4.967341995982828 1 0 0
1431 149 4 -0.35 -6.060456635046967 -9.846329185872538 -1.9329843468035754 1 1 0
1430 149 3 0.7 -6.337442660663337 -10.557504826972254 -2.806591617419617 1 1 0
1406 141 3 0.7 -7.686157263342744 -7.109727703558064 -2.7073524643082507 1 0 0
1408 141 4 -0.35 -7.725881330710788 -7.61241349433503 -3.752152699991978 1 0 0
1387 134 4 -0.35 -9.282864138984204 -9.707668534896431 -2.2754887173182112 0 1 0
1722 246 2 0.527 -4.73649402912549 -7.113472139756144 -0.8682218361891785 1 0 0
1432 149 4 -0.35 -6.612941534795348 -11.2685123687504 -3.6813955827653118 1 1 0
1580 199 1 -1.054 1.7871634622277277 -12.165694299101437 -10.270789934659495 0 0 0
1680 232 2 0.527 -4.086735867021472 -11.347520017670453 -6.457806278982929 1 0 0
1385 134 3 0.7 -10.203418120200098 -10.311593147568347 -1.9088792584870795 0 1 0
1407 141 4 -0.35 -7.643905096288794 -6.608030396413991 -1.662032241836048 1 0 0
1723 246 2 0.527 -4.2554243284175275 -8.170065133794603 -1.8400006392590242 1 0 0
1087 34 4 -0.35 -5.487012212219606 -6.0507444232731595 -9.695535884887292 1 0 0
1329 115 4 -0.35 6.810774856851445 -8.373365183477771 -0.15240380954145039 0 1 0
1354 123 4 -0.35 8.411844403892712 -0.8986702827595927 -2.2803597652181367 0 1 0
1896 304 2 0.527 1.3960503572764278 -0.5127111038846834 -11.820727249608328 0 0 0
1624 213 2 0.527 -5.354241752105932 -9.993998999575249 -12.073754154300795 0 0 0
1085 34 3 0.7 -6.38461814419717 -6.529002117532655 -10.253733536259842 1 0 0
1297 104 4 -0.35 -3.4970738059635886 -7.263402558818161 -4.664099630024918 1 0 0
1709 242 1 -1.054 -3.594461230911553 -11.594643543138595 -3.3619630534858267 1 0 0
1710 242 2 0.527 -3.6012615978504776 -11.408031951565173 -4.30080997651805 1 0 0
1681 232 2 0.527 -2.8903866288581908 -12.126445002512328 -5.953799870071155 1 0 0
1417 144 4 -0.35 -2.2599996715186847 -9.395269935618419 -8.316463823191818 0 1 0
1582 199 2 0.527 1.9315076229914538 -11.219621840237831 -10.248182754045182 0 0 0
1926 314 2 0.527 2.8943006914725444 -8.666861585868498 -10.616460582119839 0 1 0
1925 314 1 -1.054 2.7849801725009176 -9.585183107172663 -10.369216466117814 0 1 0
1415 144 3 0.7 -1.554342995311318 -10.312125023687344 -8.232217832270496 0 1 0
1204 73 4 -0.35 1.695160115850884 -10.054203167082981 -6.985496331241372 0 0 0
1416 144 4 -0.35 -0.8477981569771114 -11.228616604916574 -8.150201349982222 0 1 0
1342 119 4 -0.35 -0.9975775020614961 -9.128153787037153 -5.572552387405839 0 1 0
1312 109 4 -0.35 -2.236906248077391 -7.495095512100239 -10.68237912159068 0 1 0
1009 8 4 -0.35 0.6711713904851617 -7.558825290993111 -9.062663851059696 0 0 0
1679 232 1 -1.054 -3.2911421463554733 -11.257339320823668 -5.933266422263323 1 0 0
1755 257 2 0.527 -3.233903166857769 -10.560288901765148 -1.9854153721196397 1 0 0
1754 257 1 -1.054 -3.0605280416881087 -9.980567561219978 -1.2436572480654284 1 0 0
1341 119 4 -0.35 -0.37297511131703587 -10.987141072598796 -4.33245167022406 0 1 0
1756 257 2 0.527 -2.178266608707604 -9.644951769685665 -1.4024531099236377 1 0 0
1340 119 3 0.7 -0.6874421435484077 -10.05811236587999 -4.951910291015285 0 1 0
1667 228 1 -1.054 -0.46179276833632876 -8.672813279373635 -1.5010682785765646 0 0 0
1668 228 2 0.527 -0.7722722383567877 -7.775630004645685 -1.623735157709092 0 0 0
1669 228 2 0.527 0.37905900423617744 -8.700286646547237 -1.9576279573572073 0 0 0
1642 219 2 0.527 -0.03252908769153606 -10.061257910058687 -0.4245529487121509 0 0 0
1059 25 4 -0.35 2.0859751786764793 -9.81602114779587 -2.656432657958515 1 0 0
1058 25 3 0.7 3.2193500234566557 -10.062871942656159 -2.69620285714257 1 0 0
1202 73 3 0.7 2.6767223819002837 -10.639930759679817 -6.7850331449688746 0 0 0
1931 316 1 -1.054 3.2674759608991852 -6.738932717323321 -11.43750801864947 0 0 0
1310 109 3 0.7 -1.8792472716586044 -8.552575450588776 -10.998511311763798 0 1 0
1007 8 3 0.7 1.3174554382054176 -7.218059150701925 -8.161359503171049 0 0 0
1311 109 4 -0.35 -1.5207437816775826 -9.610814303430072 -11.311284273133822 0 1 0
1008 8 4 -0.35 1.9616295981342358 -6.878245720341849 -7.2576082467026986 0 0 0
1424 147 3 0.7 3.934415465355201 -4.315991505358879 -7.114214433286655 -1 1 0
1150 55 4 -0.35 -3.155380661457434 -6.741229820745988 -7.473683101002845 0 0 0
1922 313 1 -1.054 -7.664027610745201 -12.33156967881935 -10.758756516174765 0 1 0
1752 256 2 0.527 -6.929032373675469 -3.6812818635571194 -0.2806244191550462 1 0 0
1933 316 2 0.527 3.0458819827145227 -5.950005841399759 -10.942678306449373 0 0 0
1148 55 3 0.7 -2.137321739967023 -6.430143586176149 -7.0112821777997745 0 0 0
1347 121 4 -0.35 0.9039521357322489 -7.081455635200139 -3.788762179644781 1 0 0
1149 55 4 -0.35 -1.1179100362886523 -6.128352145311473 -6.545496499902313 0 0 0
1899 305 2 0.527 6.89477443117023 -0.08611960078383696 -10.360234856345965 0 0 0
1344 120 4 -0.35 9.264418942182438 -7.035099895994225 -11.749492183343552 0 1 0
1391 136 3 0.7 1.0354291724698488 -0.019787792931387216 -1.9552312791787045 0 0 0
1102 39 4 -0.35 9.433997067331436 -3.603563847614163 -3.9645510096473657 0 0 0
1382 133 3 0.7 5.301995230993551 -0.8193368195250894 -6.09669429882738 1 0 0
1077 31 4 -0.35 3.4666385143925176 -8.521001314697843 -5.054958476236685 1 0 0
1060 25 4 -0.35 4.351977616048899 -10.310215637060342 -2.7350931048499874 1 0 0
1076 31 3 0.7 3.689111888483623 -7.390599551045112 -4.917155719222269 1 0 0
1447 154 4 -0.35 10.482708304075384 -6.691951426315524 -3.8393408660866726 -1 0 0