# LAMMPS data file 

94 atoms
93 bonds
170 angles
106 dihedrals

5 atom types
5 bond types
8 angle types
14 dihedral types

-30.0 30.0 xlo xhi
-30.0 30.0 ylo yhi
-30.0 30.0 zlo zhi

Atoms

1 1 1 0.05 -33.60000000000001 -0.0 0.0 
2 1 3 0.09 -33.60000000000001 -1.0 0.0 
3 1 3 0.09 -33.60000000000001 1.0 0.0 
4 1 4 -0.65 -35.000000000000014 -0.0 0.0 
5 1 5 0.42 -35.000000000000014 -1.0 0.0 
6 1 1 -0.01 -32.20000000000001 0.0 0.0 
7 1 3 0.09 -32.20000000000001 1.0 0.0 
8 1 3 0.09 -32.20000000000001 -1.0 0.0 
9 1 2 -0.34 -30.80000000000001 0.0 0.0 
10 1 1 -0.01 -29.400000000000013 0.0 0.0 
11 1 3 0.09 -29.400000000000013 1.0 0.0 
12 1 3 0.09 -29.400000000000013 -1.0 0.0 
13 1 1 -0.01 -26.600000000000012 0.0 0.0 
14 1 3 0.09 -26.600000000000012 1.0 0.0 
15 1 3 0.09 -26.600000000000012 -1.0 0.0 
16 1 2 -0.34 -25.20000000000001 0.0 0.0 
17 1 1 -0.01 -23.80000000000001 0.0 0.0 
18 1 3 0.09 -23.80000000000001 1.0 0.0 
19 1 3 0.09 -23.80000000000001 -1.0 0.0 
20 1 1 -0.01 -21.00000000000001 0.0 0.0 
21 1 3 0.09 -21.00000000000001 1.0 0.0 
22 1 3 0.09 -21.00000000000001 -1.0 0.0 
23 1 2 -0.34 -19.60000000000001 0.0 0.0 
24 1 1 -0.01 -18.20000000000001 0.0 0.0 
25 1 3 0.09 -18.20000000000001 1.0 0.0 
26 1 3 0.09 -18.20000000000001 -1.0 0.0 
27 1 1 -0.01 -15.400000000000011 0.0 0.0 
28 1 3 0.09 -15.400000000000011 1.0 0.0 
29 1 3 0.09 -15.400000000000011 -1.0 0.0 
30 1 2 -0.34 -14.00000000000001 0.0 0.0 
31 1 1 -0.01 -12.600000000000009 0.0 0.0 
32 1 3 0.09 -12.600000000000009 1.0 0.0 
33 1 3 0.09 -12.600000000000009 -1.0 0.0 
34 1 1 -0.01 -9.800000000000011 0.0 0.0 
35 1 3 0.09 -9.800000000000011 1.0 0.0 
36 1 3 0.09 -9.800000000000011 -1.0 0.0 
37 1 2 -0.34 -8.40000000000001 0.0 0.0 
38 1 1 -0.01 -7.000000000000007 0.0 0.0 
39 1 3 0.09 -7.000000000000007 1.0 0.0 
40 1 3 0.09 -7.000000000000007 -1.0 0.0 
41 1 1 -0.01 -4.20000000000001 0.0 0.0 
42 1 3 0.09 -4.20000000000001 1.0 0.0 
43 1 3 0.09 -4.20000000000001 -1.0 0.0 
44 1 2 -0.34 -2.800000000000008 0.0 0.0 
45 1 1 -0.01 -1.4000000000000057 0.0 0.0 
46 1 3 0.09 -1.4000000000000057 1.0 0.0 
47 1 3 0.09 -1.4000000000000057 -1.0 0.0 
48 1 1 -0.01 1.3999999999999915 0.0 0.0 
49 1 3 0.09 1.3999999999999915 1.0 0.0 
50 1 3 0.09 1.3999999999999915 -1.0 0.0 
51 1 2 -0.34 2.79999999999999 0.0 0.0 
52 1 1 -0.01 4.199999999999996 0.0 0.0 
53 1 3 0.09 4.199999999999996 1.0 0.0 
54 1 3 0.09 4.199999999999996 -1.0 0.0 
55 1 1 -0.01 6.999999999999993 0.0 0.0 
56 1 3 0.09 6.999999999999993 1.0 0.0 
57 1 3 0.09 6.999999999999993 -1.0 0.0 
58 1 2 -0.34 8.399999999999991 0.0 0.0 
59 1 1 -0.01 9.799999999999997 0.0 0.0 
60 1 3 0.09 9.799999999999997 1.0 0.0 
61 1 3 0.09 9.799999999999997 -1.0 0.0 
62 1 1 -0.01 12.599999999999994 0.0 0.0 
63 1 3 0.09 12.599999999999994 1.0 0.0 
64 1 3 0.09 12.599999999999994 -1.0 0.0 
65 1 2 -0.34 13.999999999999993 0.0 0.0 
66 1 1 -0.01 15.399999999999991 0.0 0.0 
67 1 3 0.09 15.399999999999991 1.0 0.0 
68 1 3 0.09 15.399999999999991 -1.0 0.0 
69 1 1 -0.01 18.200000000000003 0.0 0.0 
70 1 3 0.09 18.200000000000003 1.0 0.0 
71 1 3 0.09 18.200000000000003 -1.0 0.0 
72 1 2 -0.34 19.599999999999994 0.0 0.0 
73 1 1 -0.01 20.999999999999993 0.0 0.0 
74 1 3 0.09 20.999999999999993 1.0 0.0 
75 1 3 0.09 20.999999999999993 -1.0 0.0 
76 1 1 -0.01 23.799999999999997 0.0 0.0 
77 1 3 0.09 23.799999999999997 1.0 0.0 
78 1 3 0.09 23.799999999999997 -1.0 0.0 
79 1 2 -0.34 25.199999999999996 0.0 0.0 
80 1 1 -0.01 26.599999999999994 0.0 0.0 
81 1 3 0.09 26.599999999999994 1.0 0.0 
82 1 3 0.09 26.599999999999994 -1.0 0.0 
83 1 1 -0.01 29.39999999999999 0.0 0.0 
84 1 3 0.09 29.39999999999999 1.0 0.0 
85 1 3 0.09 29.39999999999999 -1.0 0.0 
86 1 2 -0.34 30.79999999999999 0.0 0.0 
87 1 1 -0.01 32.19999999999999 0.0 0.0 
88 1 3 0.09 32.19999999999999 1.0 0.0 
89 1 3 0.09 32.19999999999999 -1.0 0.0 
90 1 1 0.05 33.599999999999994 0.0 0.0 
91 1 3 0.09 33.599999999999994 1.0 0.0 
92 1 3 0.09 33.599999999999994 -1.0 0.0 
93 1 4 -0.65 34.999999999999986 0.0 0.0 
94 1 5 0.42 34.999999999999986 1.0 0.0 

Bonds

1 1 1 6 
2 1 10 13 
3 1 17 20 
4 1 24 27 
5 1 31 34 
6 1 38 41 
7 1 45 48 
8 1 52 55 
9 1 59 62 
10 1 66 69 
11 1 73 76 
12 1 80 83 
13 1 87 90 
14 4 1 4 
15 3 6 9 
16 3 9 10 
17 3 13 16 
18 3 16 17 
19 3 20 23 
20 3 23 24 
21 3 27 30 
22 3 30 31 
23 3 34 37 
24 3 37 38 
25 3 41 44 
26 3 44 45 
27 3 48 51 
28 3 51 52 
29 3 55 58 
30 3 58 59 
31 3 62 65 
32 3 65 66 
33 3 69 72 
34 3 72 73 
35 3 76 79 
36 3 79 80 
37 3 83 86 
38 3 86 87 
39 4 90 93 
40 3 1 2 
41 3 1 3 
42 3 6 7 
43 3 6 8 
44 3 10 11 
45 3 10 12 
46 3 13 14 
47 3 13 15 
48 3 17 18 
49 3 17 19 
50 3 20 21 
51 3 20 22 
52 3 24 25 
53 3 24 26 
54 3 27 28 
55 3 27 29 
56 3 31 32 
57 3 31 33 
58 3 34 35 
59 3 34 36 
60 3 38 39 
61 3 38 40 
62 3 41 42 
63 3 41 43 
64 3 45 46 
65 3 45 47 
66 3 48 49 
67 3 48 50 
68 3 52 53 
69 3 52 54 
70 3 55 56 
71 3 55 57 
72 3 59 60 
73 3 59 61 
74 3 62 63 
75 3 62 64 
76 3 66 67 
77 3 66 68 
78 3 69 70 
79 3 69 71 
80 3 73 74 
81 3 73 75 
82 3 76 77 
83 3 76 78 
84 3 80 81 
85 3 80 82 
86 3 83 84 
87 3 83 85 
88 3 87 88 
89 3 87 89 
90 3 90 91 
91 3 90 92 
92 5 4 5 
93 5 93 94 

Angles

1 5 2 1 3 
2 6 2 1 4 
3 2 2 1 6 
4 6 3 1 4 
5 2 3 1 6 
6 7 4 1 6 
7 1 1 4 5 
8 2 1 6 7 
9 2 1 6 8 
10 3 1 6 9 
11 5 7 6 8 
12 4 7 6 9 
13 4 8 6 9 
14 8 6 9 10 
15 4 9 10 11 
16 4 9 10 12 
17 3 9 10 13 
18 5 11 10 12 
19 2 11 10 13 
20 2 12 10 13 
21 2 10 13 14 
22 2 10 13 15 
23 3 10 13 16 
24 5 14 13 15 
25 4 14 13 16 
26 4 15 13 16 
27 8 13 16 17 
28 4 16 17 18 
29 4 16 17 19 
30 3 16 17 20 
31 5 18 17 19 
32 2 18 17 20 
33 2 19 17 20 
34 2 17 20 21 
35 2 17 20 22 
36 3 17 20 23 
37 5 21 20 22 
38 4 21 20 23 
39 4 22 20 23 
40 8 20 23 24 
41 4 23 24 25 
42 4 23 24 26 
43 3 23 24 27 
44 5 25 24 26 
45 2 25 24 27 
46 2 26 24 27 
47 2 24 27 28 
48 2 24 27 29 
49 3 24 27 30 
50 5 28 27 29 
51 4 28 27 30 
52 4 29 27 30 
53 8 27 30 31 
54 4 30 31 32 
55 4 30 31 33 
56 3 30 31 34 
57 5 32 31 33 
58 2 32 31 34 
59 2 33 31 34 
60 2 31 34 35 
61 2 31 34 36 
62 3 31 34 37 
63 5 35 34 36 
64 4 35 34 37 
65 4 36 34 37 
66 8 34 37 38 
67 4 37 38 39 
68 4 37 38 40 
69 3 37 38 41 
70 5 39 38 40 
71 2 39 38 41 
72 2 40 38 41 
73 2 38 41 42 
74 2 38 41 43 
75 3 38 41 44 
76 5 42 41 43 
77 4 42 41 44 
78 4 43 41 44 
79 8 41 44 45 
80 4 44 45 46 
81 4 44 45 47 
82 3 44 45 48 
83 5 46 45 47 
84 2 46 45 48 
85 2 47 45 48 
86 2 45 48 49 
87 2 45 48 50 
88 3 45 48 51 
89 5 49 48 50 
90 4 49 48 51 
91 4 50 48 51 
92 8 48 51 52 
93 4 51 52 53 
94 4 51 52 54 
95 3 51 52 55 
96 5 53 52 54 
97 2 53 52 55 
98 2 54 52 55 
99 2 52 55 56 
100 2 52 55 57 
101 3 52 55 58 
102 5 56 55 57 
103 4 56 55 58 
104 4 57 55 58 
105 8 55 58 59 
106 4 58 59 60 
107 4 58 59 61 
108 3 58 59 62 
109 5 60 59 61 
110 2 60 59 62 
111 2 61 59 62 
112 2 59 62 63 
113 2 59 62 64 
114 3 59 62 65 
115 5 63 62 64 
116 4 63 62 65 
117 4 64 62 65 
118 8 62 65 66 
119 4 65 66 67 
120 4 65 66 68 
121 3 65 66 69 
122 5 67 66 68 
123 2 67 66 69 
124 2 68 66 69 
125 2 66 69 70 
126 2 66 69 71 
127 3 66 69 72 
128 5 70 69 71 
129 4 70 69 72 
130 4 71 69 72 
131 8 69 72 73 
132 4 72 73 74 
133 4 72 73 75 
134 3 72 73 76 
135 5 74 73 75 
136 2 74 73 76 
137 2 75 73 76 
138 2 73 76 77 
139 2 73 76 78 
140 3 73 76 79 
141 5 77 76 78 
142 4 77 76 79 
143 4 78 76 79 
144 8 76 79 80 
145 4 79 80 81 
146 4 79 80 82 
147 3 79 80 83 
148 5 81 80 82 
149 2 81 80 83 
150 2 82 80 83 
151 2 80 83 84 
152 2 80 83 85 
153 3 80 83 86 
154 5 84 83 85 
155 4 84 83 86 
156 4 85 83 86 
157 8 83 86 87 
158 4 86 87 88 
159 4 86 87 89 
160 3 86 87 90 
161 5 88 87 89 
162 2 88 87 90 
163 2 89 87 90 
164 2 87 90 91 
165 2 87 90 92 
166 7 87 90 93 
167 5 91 90 92 
168 6 91 90 93 
169 6 92 90 93 
170 1 90 93 94 

Dihedrals

1 6 6 1 4 5 
2 7 6 1 4 5 
3 8 6 1 4 5 
4 12 4 1 6 9 
5 13 4 1 6 9 
6 14 4 1 6 9 
7 1 1 6 9 10 
8 2 1 6 9 10 
9 3 1 6 9 10 
10 1 6 9 10 13 
11 2 6 9 10 13 
12 3 6 9 10 13 
13 4 9 10 13 16 
14 5 9 10 13 16 
15 1 10 13 16 17 
16 2 10 13 16 17 
17 3 10 13 16 17 
18 1 13 16 17 20 
19 2 13 16 17 20 
20 3 13 16 17 20 
21 4 16 17 20 23 
22 5 16 17 20 23 
23 1 17 20 23 24 
24 2 17 20 23 24 
25 3 17 20 23 24 
26 1 20 23 24 27 
27 2 20 23 24 27 
28 3 20 23 24 27 
29 4 23 24 27 30 
30 5 23 24 27 30 
31 1 24 27 30 31 
32 2 24 27 30 31 
33 3 24 27 30 31 
34 1 27 30 31 34 
35 2 27 30 31 34 
36 3 27 30 31 34 
37 4 30 31 34 37 
38 5 30 31 34 37 
39 1 31 34 37 38 
40 2 31 34 37 38 
41 3 31 34 37 38 
42 1 34 37 38 41 
43 2 34 37 38 41 
44 3 34 37 38 41 
45 4 37 38 41 44 
46 5 37 38 41 44 
47 1 38 41 44 45 
48 2 38 41 44 45 
49 3 38 41 44 45 
50 1 41 44 45 48 
51 2 41 44 45 48 
52 3 41 44 45 48 
53 4 44 45 48 51 
54 5 44 45 48 51 
55 1 45 48 51 52 
56 2 45 48 51 52 
57 3 45 48 51 52 
58 1 48 51 52 55 
59 2 48 51 52 55 
60 3 48 51 52 55 
61 4 51 52 55 58 
62 5 51 52 55 58 
63 1 52 55 58 59 
64 2 52 55 58 59 
65 3 52 55 58 59 
66 1 55 58 59 62 
67 2 55 58 59 62 
68 3 55 58 59 62 
69 4 58 59 62 65 
70 5 58 59 62 65 
71 1 59 62 65 66 
72 2 59 62 65 66 
73 3 59 62 65 66 
74 1 62 65 66 69 
75 2 62 65 66 69 
76 3 62 65 66 69 
77 4 65 66 69 72 
78 5 65 66 69 72 
79 1 66 69 72 73 
80 2 66 69 72 73 
81 3 66 69 72 73 
82 1 69 72 73 76 
83 2 69 72 73 76 
84 3 69 72 73 76 
85 4 72 73 76 79 
86 5 72 73 76 79 
87 1 73 76 79 80 
88 2 73 76 79 80 
89 3 73 76 79 80 
90 1 76 79 80 83 
91 2 76 79 80 83 
92 3 76 79 80 83 
93 4 79 80 83 86 
94 5 79 80 83 86 
95 1 80 83 86 87 
96 2 80 83 86 87 
97 3 80 83 86 87 
98 1 83 86 87 90 
99 2 83 86 87 90 
100 3 83 86 87 90 
101 12 86 87 90 93 
102 13 86 87 90 93 
103 14 86 87 90 93 
104 6 87 90 93 94 
105 7 87 90 93 94 
106 8 87 90 93 94 
