LAMMPS data file via write_data, version 8 Apr 2021, timestep = 50000

6000 atoms
2 atom types
4000 bonds
1 bond types
2000 angles
1 angle types

-19.578825454772957 19.578825454772957 xlo xhi
-19.578825454772957 19.578825454772957 ylo yhi
-19.578825454772957 19.578825454772957 zlo zhi

Masses

1 15.9994
2 1.008

Pair Coeffs # lj/cut/tip4p/long

1 0.1852 3.1589
2 0 0

Bond Coeffs # harmonic

1 0 0.9572

Angle Coeffs # harmonic

1 0 104.52

Atoms # full

670 224 1 -1.1128 -17.612961081588384 -18.121723150931626 -16.22229632956242 0 0 0
2898 966 2 0.5564 -19.506663780279695 -9.392987245378793 -3.0543991568012565 1 0 0
671 224 2 0.5564 -18.559855922008893 -18.251429386607555 -16.169578616360248 0 0 0
672 224 2 0.5564 -17.433358876388173 -17.411475890448003 -15.606256758372778 0 0 0
5669 1890 2 0.5564 -14.982423012245604 -13.816548550745544 -17.69566928241359 0 0 1
41 14 2 0.5564 -14.377878528984258 -16.639665334504716 -16.717268413919346 0 0 0
1079 360 2 0.5564 -16.18159039575624 -4.8601495716817045 -19.484964091197416 0 0 0
3361 1121 1 -1.1128 -0.5554557672577367 -17.260921240544796 -11.458185513525663 0 0 0
95 32 2 0.5564 -14.883452872727302 -14.409803322878702 -15.949641394669182 0 0 0
1676 559 2 0.5564 -17.039450847879387 -16.504461219309366 -13.635388770465394 0 1 0
42 14 2 0.5564 -14.99420143586438 -17.764730904301842 -15.913388380825376 0 0 0
40 14 1 -1.1128 -14.381689786730025 -17.592727997054528 -16.628551314208316 0 0 0
94 32 1 -1.1128 -14.20121597258555 -14.94158754762483 -16.35948467647549 0 0 0
96 32 2 0.5564 -13.380221997862535 -14.553243744372704 -16.057209833935534 0 0 0
1490 497 2 0.5564 -18.27852975443928 -14.679522085215474 -17.532537366902886 1 0 0
2711 904 2 0.5564 -16.47393073034713 -5.160443794818924 -1.3827315413780177 0 0 0
1612 538 1 -1.1128 -16.252637006102276 -13.65676262521853 -14.795035849507236 0 0 0
1613 538 2 0.5564 -16.902589175507135 -13.872456326547763 -15.463805225751305 0 0 0
937 313 1 -1.1128 -16.80706004328161 -17.30157255876762 -18.944938122363823 1 0 0
939 313 2 0.5564 -16.903315310501654 -17.24205132084342 -17.994461718922373 1 0 0
5668 1890 1 -1.1128 -15.597551820193482 -13.202911650548382 -18.097265860752977 0 0 1
1563 521 2 0.5564 -18.363477586278496 -19.543378532048433 -8.767334017416726 0 0 0
1677 559 2 0.5564 -16.329439896796607 -15.513790442656923 -14.533332679788934 0 1 0
1675 559 1 -1.1128 -16.372792896577494 -16.445838241760615 -14.319743858735478 0 1 0
5268 1756 2 0.5564 -14.500695240503747 -16.32309594240243 -13.679383180432593 0 0 1
5266 1756 1 -1.1128 -13.715249358179513 -16.394664771104537 -13.137012289546458 0 0 1
281 94 2 0.5564 -2.1077067335889517 -19.354431209490674 -13.611529010454289 0 0 0
206 69 2 0.5564 -12.393430958783924 -9.83591794615805 -0.34861241706839863 0 0 -1
938 313 2 0.5564 -16.283091864668275 -18.09042585140611 -19.08415536243147 1 0 0
4608 1536 2 0.5564 -11.176630698385766 -18.263820481573102 -16.97871458850352 0 0 1
3787 1263 1 -1.1128 -0.35971152600098577 -4.502199132512182 -3.353712392466864 0 0 0
4607 1536 2 0.5564 -12.674396512262465 -18.36188613356815 -17.176021786505686 0 0 1
2657 886 2 0.5564 -11.240775934924962 -16.857925424799703 -14.952277516911671 0 0 0
2658 886 2 0.5564 -12.359249333678298 -17.24462369957887 -14.008175377793783 0 0 0
2656 886 1 -1.1128 -11.532452424938691 -17.561146540108126 -14.37208926642391 0 0 0
272 91 2 0.5564 -7.366334221837292 -14.882676433106248 -16.418213358131233 0 1 0
271 91 1 -1.1128 -6.8079653559188 -15.476937599852121 -15.916924006449227 0 1 0
5975 1992 2 0.5564 -9.092140523678719 -17.102965292042438 -11.900314058224165 0 0 1
5974 1992 1 -1.1128 -9.950388316954783 -17.51997189096992 -11.976007205759153 0 0 1
5976 1992 2 0.5564 -10.278941129816 -17.239579952439183 -12.830200645467514 0 0 1
273 91 2 0.5564 -5.929924554965016 -15.103747934962602 -15.994299552622726 0 1 0
712 238 1 -1.1128 -10.980350539222943 -15.861911334570566 -16.480785094796353 0 0 0
4693 1565 1 -1.1128 -8.54603911033532 -15.836840920452751 -18.855679959278902 0 0 1
713 238 2 0.5564 -11.052950167104928 -16.068166246397233 -17.412665910299634 0 0 0
5572 1858 1 -1.1128 -9.005092058168122 -18.104374181595453 -16.473470388012142 1 1 1
5574 1858 2 0.5564 -9.020006477481717 -17.150836554734127 -16.391275342090434 1 1 1
1491 497 2 0.5564 -18.807203297283312 -15.209774042244206 -16.216791954429493 1 0 0
3208 1070 1 -1.1128 -0.7971176992240316 -19.165752652722716 -1.8403133040344741 0 0 0
4694 1565 2 0.5564 -9.480464530723014 -16.031564115909028 -18.92740879908006 0 0 1
1301 434 2 0.5564 -1.3691815371873979 -12.153166895926796 -5.605605496563591 0 0 0
1685 562 2 0.5564 -10.23584025661042 -19.380984636785442 -9.561956309440589 0 0 0
4968 1656 2 0.5564 -18.667990481411188 -1.0650235847339715 -0.8429919605906093 1 0 0
4098 1366 2 0.5564 -8.305388826845341 -18.630653110988295 -18.141088279858216 0 0 1
4172 1391 2 0.5564 -1.5923665718766493 -19.398307079357384 -10.180059971971536 0 1 1
2145 715 2 0.5564 -11.257773862639601 -17.573041682118422 -6.405811962381112 0 1 0
5931 1977 2 0.5564 -1.8133167872360367 -18.354872122132306 -17.483005021851344 0 0 1
668 223 2 0.5564 -0.8034023652011335 -15.09780858589934 -16.703441993009385 0 0 0
2193 731 2 0.5564 -5.617181961113939 -19.090000875281024 -14.059299152687679 0 0 0
5781 1927 2 0.5564 -6.2982418926434125 -16.758763161828004 -18.31254878070911 0 0 1
5774 1925 2 0.5564 -2.8472212787449216 -16.200850067139555 -16.917045363629946 0 0 1
2231 744 2 0.5564 -4.917739025320653 -17.01284502535106 -14.089226947955169 0 0 0
5773 1925 1 -1.1128 -3.1814980685966177 -17.090392945117856 -17.031875893989277 0 0 1
667 223 1 -1.1128 -1.5131892596798693 -14.743047073398046 -17.238755695892007 0 0 0
2232 744 2 0.5564 -6.103257898689691 -16.607741378993058 -14.939099824625973 0 0 0
2230 744 1 -1.1128 -5.81467474324449 -17.266243391267427 -14.307191347089677 0 0 0
5775 1925 2 0.5564 -3.9965903871434207 -16.979158630171188 -17.521227273422117 0 0 1
719 240 2 0.5564 -5.267664571745087 -13.324698499191186 -15.439544363749057 0 0 0
5779 1927 1 -1.1128 -5.5365418279590735 -17.312899036624113 -18.482723508308 0 0 1
720 240 2 0.5564 -4.372105980614361 -13.67482634063261 -16.608831832407404 0 0 0
718 240 1 -1.1128 -4.583353627396212 -13.935801991273827 -15.712461581114578 0 0 0
2143 715 1 -1.1128 -10.742466728559616 -17.61884670442969 -5.600471030195228 0 1 0
2725 909 1 -1.1128 -3.649095550635211 -15.510210056345038 -13.611943408765137 0 1 0
1607 536 2 0.5564 -7.269193482426674 -16.372645101235367 -13.393428433748367 0 0 0
2727 909 2 0.5564 -3.825469249139859 -15.093532008002832 -14.455439054734683 0 1 0
554 185 2 0.5564 -19.214043804258512 -7.852973359333914 -10.211350902915814 0 0 0
5928 1976 2 0.5564 -5.4262076049613075 -19.025771701069214 -18.33895218156634 0 1 1
2726 909 2 0.5564 -2.7064257373011635 -15.676165264926055 -13.618702201140403 0 1 0
5755 1919 1 -1.1128 -7.20074180422902 -8.707396189298166 -17.540167027807875 0 0 1
1482 494 2 0.5564 -18.28033313682753 -19.08573251550017 -1.6343838511744657 1 1 0
4606 1536 1 -1.1128 -11.844663779701754 -18.39074595069245 -17.652387526538583 0 0 1
2582 861 2 0.5564 -13.410982956898007 -12.290363702363269 -0.7300944088808272 0 0 0
3127 1043 1 -1.1128 -15.997088429153173 -13.686994068318246 -0.44817383178541803 0 0 0
3201 1067 2 0.5564 -7.591011677588575 -8.673983795284203 -1.3917113086260677 0 0 0
1110 370 2 0.5564 -14.085428923272065 -10.57443840567506 -15.576012053228313 0 0 0
1108 370 1 -1.1128 -14.970800761039257 -10.441951419058663 -15.237224480408656 0 0 0
1109 370 2 0.5564 -15.277370404127755 -11.321427944932385 -15.016432801889238 0 0 0
1021 341 1 -1.1128 -18.063137454368167 -10.249687380381209 -15.86973144266437 0 0 0
1023 341 2 0.5564 -18.182472138798815 -9.415777022257934 -15.41523905288625 0 0 0
615 205 2 0.5564 -13.560109479257793 -8.608835673677444 -18.326813766077418 0 0 0
614 205 2 0.5564 -14.805631518630387 -8.56621171289774 -19.186294547921587 0 0 0
613 205 1 -1.1128 -14.178822045678416 -9.172347318052598 -18.791424255300438 0 0 0
1022 341 2 0.5564 -17.11778351025208 -10.398845410766652 -15.853257192871522 0 0 0
530 177 2 0.5564 -18.570598256575238 -6.983332547407818 -16.28625765633402 0 0 0
92 31 2 0.5564 -12.968348903764182 -10.490969066288551 -17.903010834551477 0 0 0
1614 538 2 0.5564 -16.75705391670088 -13.24242793355802 -14.09496155289553 0 0 0
3290 1097 2 0.5564 -0.37906874868678386 -16.64212216949985 -4.509942068167495 0 0 0
93 31 2 0.5564 -12.468922778071565 -11.698491798702758 -17.13860942705907 0 0 0
91 31 1 -1.1128 -12.4557938679921 -10.741402074915813 -17.134385991746463 0 0 0
3308 1103 2 0.5564 -5.4095463146399485 -19.50348440777859 -3.981928442660605 0 1 0
2081 694 2 0.5564 -19.342725228438763 -5.160414853482322 -13.075709485766144 0 0 0
2710 904 1 -1.1128 -16.807063585058984 -4.4901101359858995 -1.9792951158317678 0 0 0
171 57 2 0.5564 -16.531180788439567 -7.3003894441117225 -18.762942433933105 0 0 0
1107 369 2 0.5564 -19.51212902830323 -8.001753954307109 -14.27102880241478 0 0 0
1105 369 1 -1.1128 -18.561220737535105 -7.95766526909199 -14.371244577431751 0 0 0
1106 369 2 0.5564 -18.342717488466956 -7.043916491201728 -14.18812474239618 0 0 0
2115 705 2 0.5564 -17.558023707280803 -9.405880431706537 -13.019786460768778 0 0 0
58 20 1 -1.1128 -10.928611146087421 -0.12445109328626813 -17.901744704945493 0 0 0
790 264 1 -1.1128 -4.506340693708786 -1.0631503940801572 -4.042416853263946 0 0 0
714 238 2 0.5564 -11.188674474844667 -14.929365692632393 -16.424454691796345 0 0 0
244 82 1 -1.1128 -8.194220527151721 -13.379597161412764 -17.323587008251547 0 0 0
249 83 2 0.5564 -8.911275236894435 -11.759065817000884 -15.742032597469962 0 0 0
247 83 1 -1.1128 -9.356891093292438 -11.566526744051334 -14.917067362666371 0 0 0
248 83 2 0.5564 -9.254329307677713 -12.363651634177863 -14.397177123760251 0 0 0
246 82 2 0.5564 -7.446887067445008 -12.929518779131936 -16.929714427618997 0 0 0
172 58 1 -1.1128 -9.938034821303626 -9.178033110754448 -16.725920032215576 0 0 0
174 58 2 0.5564 -9.639425983006582 -8.537289299691949 -16.080557351806075 0 0 0
245 82 2 0.5564 -8.604142261956765 -12.71982189642359 -17.882938473726277 0 0 0
1140 380 2 0.5564 -6.8553754737043295 -13.132591817363249 -14.428058859080377 0 0 0
605 202 2 0.5564 -11.851357382552372 -8.218363279359224 -16.86213611571486 0 0 0
173 58 2 0.5564 -10.36448372978213 -9.860197524287663 -16.207262659450695 0 0 0
5756 1919 2 0.5564 -8.073572615461885 -8.92287567225013 -17.21161203053738 0 0 1
1138 380 1 -1.1128 -6.618695617612088 -12.448270046047266 -15.05407560927732 0 0 0
5355 1785 2 0.5564 -6.021999413906906 -9.938636164871914 -17.49720229285234 0 0 1
604 202 1 -1.1128 -12.521219678984913 -7.650672699436944 -17.24322061223218 0 0 0
2199 733 2 0.5564 -11.234036244274938 -12.663001544141864 -15.77521947175118 0 0 0
2197 733 1 -1.1128 -11.932726053433933 -13.316727236868637 -15.801460646423289 0 0 0
2198 733 2 0.5564 -12.45176896562662 -13.14490905103469 -15.01578499912162 0 0 0
4624 1542 1 -1.1128 -17.374768243317327 -0.8717714189973087 -18.912653093165073 0 0 1
1152 384 2 0.5564 -0.5726817512400544 -9.403172154062823 -15.164745772242398 0 0 0
669 223 2 0.5564 -1.4552642037191639 -13.795441671261344 -17.116680943107212 0 0 0
1139 380 2 0.5564 -6.2016948637533424 -11.770364703305535 -14.522316654178514 0 0 0
5353 1785 1 -1.1128 -5.377766859333056 -10.633167954728485 -17.36007665028307 0 0 1
5897 1966 2 0.5564 -2.538197967713824 -8.752903680563776 -18.987767726573416 0 0 1
356 119 2 0.5564 -1.2892613509638053 -11.590933054290023 -18.41823272504725 0 0 0
355 119 1 -1.1128 -0.8622423122678065 -11.725041904824646 -17.57213430106472 0 0 0
1556 519 2 0.5564 -16.612599674587322 -19.573150842025616 -15.948821492798102 0 1 0
787 263 1 -1.1128 -3.0680731730561526 -8.306665223333075 -17.310823593676442 0 0 0
788 263 2 0.5564 -3.10519666907334 -7.383416107325736 -17.06093097613553 0 0 0
5354 1785 2 0.5564 -4.76887437391137 -10.27193000699582 -16.71589491184719 0 0 1
5310 1770 2 0.5564 -2.9023940237973243 -10.163554830800226 -14.908195755254262 0 0 1
5309 1770 2 0.5564 -4.307417340429572 -10.234133556736637 -14.348930465175648 0 0 1
5308 1770 1 -1.1128 -3.79892703044821 -9.87255841515219 -15.074819299674568 0 0 1
5208 1736 2 0.5564 -6.454756562924894 -7.136386885970618 -16.723234077439272 0 0 1
1150 384 1 -1.1128 -1.1294361975612368 -10.176243144264305 -15.072012739975518 0 0 0
1151 384 2 0.5564 -1.0890653993001393 -10.605000320121936 -15.926852551317635 0 0 0
789 263 2 0.5564 -3.396887553245371 -8.776182029484787 -16.54424232405194 0 0 0
771 257 2 0.5564 -1.167269471091835 -16.84890753716961 -14.216388090781898 0 1 0
5145 1715 2 0.5564 -4.5766575105212315 -12.173987980730722 -17.841981920088905 0 1 1
1243 415 1 -1.1128 -18.596979882762334 -19.51360859963383 -13.099722584613485 0 1 0
5143 1715 1 -1.1128 -4.1709754572815285 -12.881716676742393 -18.34273199917367 0 1 1
3325 1109 1 -1.1128 -0.029958375188098074 -10.900286027115138 -5.9584332207646025 0 0 0
3008 1003 2 0.5564 -19.162922090957384 -7.827893282768342 -1.682812101619973 1 0 0
3429 1143 2 0.5564 -18.62911284905337 -9.24009270608168 -0.3320166201818786 1 1 0
3230 1077 2 0.5564 -3.965899530267734 -17.507112127177155 -0.5632574545584426 0 1 0
829 277 1 -1.1128 -0.332326078210766 -0.9461124279649304 -18.223282304760723 0 0 0
3333 1111 2 0.5564 -0.5452529797309182 -7.92598492351844 -3.884529400340499 0 0 0
2557 853 1 -1.1128 -13.883530390139658 -6.453885613458381 -1.7103240649208367 0 0 0
531 177 2 0.5564 -18.549679137440393 -5.836624437095399 -17.27442283410627 0 0 0
529 177 1 -1.1128 -18.359866907638985 -6.771489744066548 -17.195613143399587 0 0 0
1080 360 2 0.5564 -15.465848817703904 -3.5850992784223195 -19.09278052391731 0 0 0
1181 394 2 0.5564 -15.942912084918873 -4.628858579574079 -14.211641755447648 0 0 0
5602 1868 1 -1.1128 -14.1175114451855 -2.8309146425791205 -17.73460573397403 0 0 1
5604 1868 2 0.5564 -14.081088500537673 -1.9743563420482246 -17.308935923617828 0 0 1
1182 394 2 0.5564 -15.693936913098524 -5.622544643175157 -15.326291776275156 0 0 0
2130 710 2 0.5564 -17.827444968534493 -3.667534835347295 -18.414335305321522 0 0 0
646 216 1 -1.1128 -13.720495426885558 -5.282277740985288 -16.347739200425767 0 0 0
1180 394 1 -1.1128 -16.101295556628063 -5.5384406432427795 -14.464202453567276 0 0 0
5402 1801 2 0.5564 -18.37923535968805 -1.5463353588683972 -15.71027357069466 1 0 1
5180 1727 2 0.5564 -13.791024852527595 -1.9666081002857219 -14.549740584849088 0 0 1
1546 516 1 -1.1128 -15.580131378055235 -2.5774264141074745 -14.041142373347325 0 0 0
1548 516 2 0.5564 -16.159615641446454 -2.0751502666760864 -14.613968729736303 0 0 0
1078 360 1 -1.1128 -16.30519346017147 -3.9135547999721556 -19.415007372427098 0 0 0
1547 516 2 0.5564 -15.820413814395792 -2.302787884003397 -13.15624025666299 0 0 0
4339 1447 1 -1.1128 -3.6720596483279593 -14.239505579547133 -0.0519883901856133 0 0 0
2463 821 2 0.5564 -19.570989742123277 -15.874157383957856 -9.250825840463754 1 0 0
164 55 2 0.5564 -14.92636211479671 -6.042069303282952 -13.295930967905809 0 0 0
2128 710 1 -1.1128 -18.6330380819165 -3.8712688845339454 -17.93922918105276 0 0 0
647 216 2 0.5564 -13.697344421967959 -4.560021381943173 -16.975450694584953 0 0 0
2080 694 1 -1.1128 -18.732566948082543 -5.687281368871499 -12.559637415412348 0 0 0
5883 1961 2 0.5564 -2.2227128003638654 -15.257836689878253 -18.951550715581856 0 1 1
830 277 2 0.5564 -0.7436745024834188 -1.6624980897493273 -17.739756074731815 0 0 0
2235 745 2 0.5564 -1.7239194220017566 -6.547507066268508 -8.22905798556091 0 0 0
792 264 2 0.5564 -3.586879904947489 -0.9810571647477744 -4.295528867604883 0 0 0
2698 900 1 -1.1128 -6.484361486408346 -18.058772115840195 -2.3668124917371216 0 0 0
5401 1801 1 -1.1128 -19.031036850713615 -2.243335421637628 -15.784833532560238 1 0 1
5403 1801 2 0.5564 -18.711294007454462 -2.795597170794146 -16.498265491886777 1 0 1
3129 1043 2 0.5564 -16.41583744251031 -14.47952952595541 -0.1123922256788461 0 0 0
5712 1904 2 0.5564 -8.020945624018681 -6.945280476369861 -15.272234588589793 0 0 1
5710 1904 1 -1.1128 -8.917253462641042 -7.157474761828331 -15.011813310273546 0 0 1
135 45 2 0.5564 -9.311220932492558 -7.205652817172284 -13.252851896416242 0 0 0
648 216 2 0.5564 -13.051179050490493 -5.059485658771413 -15.700752900771423 0 0 0
5179 1727 1 -1.1128 -12.902737584092979 -1.9303833026794806 -14.90448763019963 0 0 1
606 202 2 0.5564 -12.70951432631928 -7.008683707564341 -16.55867096479388 0 0 0
5142 1714 2 0.5564 -10.723927526593792 -1.566046733019867 -16.772038865281747 0 0 1
110 37 2 0.5564 -7.80477138852471 -2.9681892764036135 -15.871578724667131 0 0 0
5711 1904 2 0.5564 -9.426355541041719 -6.38295030922195 -15.250854661387404 0 0 1
111 37 2 0.5564 -6.978499371249514 -3.0614213618020116 -14.606497144060466 0 0 0
109 37 1 -1.1128 -7.838491727632931 -2.794265449294702 -14.930926291655044 0 0 0
5141 1714 2 0.5564 -11.548757344705901 -2.4369789984055643 -15.848469088659076 0 0 1
211 71 1 -1.1128 -7.313588052068669 -3.4271273874827273 -17.826167441828183 0 0 0
521 174 2 0.5564 -10.24714827701475 -4.18887456345232 -16.34446978633438 0 0 0
1125 375 2 0.5564 -8.841918563676499 -3.8818701801480646 -13.809685501315597 0 0 0
522 174 2 0.5564 -10.685137785786926 -5.242394697531644 -17.33951218425223 0 0 0
5140 1714 1 -1.1128 -10.7259684414278 -2.4187849195299016 -16.33724428050993 0 0 1
520 174 1 -1.1128 -10.04108325508854 -5.071461108666821 -16.65235224904187 0 0 0
2121 707 2 0.5564 -12.822966843266364 -3.7284305616066558 -13.890242927665163 0 0 0
5181 1727 2 0.5564 -12.387487242087124 -1.505946905740462 -14.218496353832967 0 0 1
212 71 2 0.5564 -6.534854007541364 -3.6578329433055483 -17.319648473523106 0 0 0
213 71 2 0.5564 -7.912419340936472 -4.162028156840227 -17.693746651751788 0 0 0
2119 707 1 -1.1128 -12.563799411688382 -4.647054394076715 -13.962178970923443 0 0 0
2897 966 2 0.5564 -18.925530748006388 -8.101708609984897 -3.589873155690567 1 0 0
4096 1366 1 -1.1128 -8.063691540595 -19.16930872705744 -18.894510561921773 0 0 1
2979 993 2 0.5564 -18.55371980602386 -0.6945026034338824 -6.891572710848832 1 0 0
59 20 2 0.5564 -10.169007814782116 -0.04686378959912929 -18.478976034978793 0 0 0
4340 1447 2 0.5564 -3.217959777187545 -13.39872515283502 -0.10762396738500613 0 0 0
1441 481 1 -1.1128 -18.991773454558498 -7.168233187560201 -4.897723273866182 1 1 0
2785 929 1 -1.1128 -3.229810842734068 -4.044426075185244 -3.9961301390847037 0 0 0
2082 694 2 0.5564 -19.275458471863693 -6.085639598541805 -11.879349640167664 0 0 0
5206 1736 1 -1.1128 -6.251200202726393 -6.498596998978188 -16.039127263746867 0 0 1
3822 1274 2 0.5564 -7.962230857921275 -19.341610348364465 -7.3231694414310535 0 1 0
5207 1736 2 0.5564 -5.725337417734078 -6.986243437372281 -15.405184833676163 0 0 1
1650 550 2 0.5564 -2.3138244884181383 -5.076746106523293 -13.763863440421385 0 0 0
1847 616 2 0.5564 -1.708397452250285 -2.9058601806643765 -8.031914361373486 0 0 0
3400 1134 1 -1.1128 -1.0071801603456123 -14.298434335021739 -2.6773906829946945 0 0 0
5841 1947 2 0.5564 -2.3792863761132104 -4.791134574926996 -16.939723085035055 0 0 1
5839 1947 1 -1.1128 -2.8998258484490727 -5.582281157054432 -16.800656297158078 0 0 1
1821 607 2 0.5564 -4.816791110064507 -4.099374319198171 -14.919609038013727 0 0 0
1648 550 1 -1.1128 -1.7028504576151917 -5.664777649574768 -14.207871646309869 0 0 0
4695 1565 2 0.5564 -8.51235507879568 -14.923138807007852 -18.572436156736384 0 0 1
1649 550 2 0.5564 -2.2480116531560945 -6.16058452739647 -14.81876192494633 0 0 0
1819 607 1 -1.1128 -5.346984434416182 -4.099074702682515 -15.716545848221838 0 0 0
1820 607 2 0.5564 -5.738793524323368 -4.971955459867587 -15.744449669296547 0 0 0
5840 1947 2 0.5564 -3.769327726598572 -5.259052802207062 -16.56464072604397 0 0 1
1255 419 1 -1.1128 -1.0861160131326741 -2.143526912211108 -12.901683534873428 0 0 0
2129 710 2 0.5564 -19.332520890839834 -3.5247999237588488 -18.49321045107361 0 0 0
2112 704 2 0.5564 -15.62092862205879 -19.36211408293466 -5.37296293771125 0 0 0
1846 616 1 -1.1128 -1.120798375812189 -2.8596167739276943 -7.277724385506415 0 0 0
2282 761 2 0.5564 -3.701835739267949 -3.8492730597169498 -0.13988502851584883 0 0 0
4249 1417 1 -1.1128 -9.653936666886498 -12.04079427305945 -1.6767985350211845 0 1 0
3199 1067 1 -1.1128 -7.459794914728553 -8.20372455324452 -0.5683934804041293 0 0 0
676 226 1 -1.1128 -5.0871200730837955 -6.8409168645852585 -0.5413179709845792 0 0 0
1256 419 2 0.5564 -0.5967795265137639 -2.488806522203017 -13.648373156499039 0 0 0
1334 445 2 0.5564 -1.856838740880228 -6.714196812787801 -10.522951998083393 0 0 0
1620 540 2 0.5564 -8.207775491956944 -0.8973702423013741 -14.911840292987165 0 0 0
1227 409 2 0.5564 -4.116696448710265 -4.3731126435140375 -5.589859479370114 0 0 0
2786 929 2 0.5564 -2.3948853781405184 -3.7962085721162317 -3.599267272030376 0 0 0
2787 929 2 0.5564 -3.854119684169765 -3.398589114363862 -3.6654610334677056 0 0 0
2708 903 2 0.5564 -6.081784509141679 -3.1807061192345607 -1.2186903007496497 0 0 0
1438 480 1 -1.1128 -16.94384033908501 -18.376013567231535 -11.458049987656834 1 1 0
2162 721 2 0.5564 -0.38534446274367795 -3.6459587429380615 -11.604035047802217 0 0 0
2978 993 2 0.5564 -17.66418525665902 -1.914141299862294 -7.005849281290393 1 0 0
2037 679 2 0.5564 -16.302679217384622 -15.361224931122575 -11.178782753521823 0 0 0
5267 1756 2 0.5564 -13.951879457418833 -17.02161995294843 -12.453530593245187 0 0 1
2549 850 2 0.5564 -16.07415886760949 -0.7708532558830008 -5.858006014460328 0 0 0
2035 679 1 -1.1128 -17.12227345716589 -15.724287919747407 -11.514437059947657 0 0 0
2036 679 2 0.5564 -17.768593330067738 -15.523834133759074 -10.837456713963554 0 0 0
1639 547 1 -1.1128 -8.504104410058225 -19.319280300508098 -14.133688440840855 0 0 0
2461 821 1 -1.1128 -19.102564609301073 -15.039899548420472 -9.222476422414173 1 0 0
1142 381 2 0.5564 -15.179884201926301 -18.669080663590425 -11.281724550989251 0 0 0
1141 381 1 -1.1128 -14.239986887509833 -18.491867123106314 -11.319168705239067 0 0 0
509 170 2 0.5564 -18.794004817191137 -13.23089376209469 -12.639398947619327 0 0 0
1850 617 2 0.5564 -0.31056216279562676 -9.703683340460572 -7.9642096567930505 0 0 0
1185 395 2 0.5564 -14.690585171181663 -13.405589223896218 -10.576062958098191 0 0 0
1183 395 1 -1.1128 -15.005146260916032 -13.478689842681428 -11.47712955957898 0 0 0
1184 395 2 0.5564 -14.340398165155497 -13.030959794105083 -12.000447354384718 0 0 0
1308 436 2 0.5564 -0.9596898937394656 -3.6255587353453365 -18.02780728154762 0 0 0
1520 507 2 0.5564 -15.82486639755782 -18.004020749994247 -8.6211054997077 1 1 0
1519 507 1 -1.1128 -14.889541789913388 -17.86594432308686 -8.471719666773573 1 1 0
1521 507 2 0.5564 -14.480981794103895 -18.05626517016602 -9.316154284752338 1 1 0
1561 521 1 -1.1128 -17.937363687486883 -18.70934056177072 -8.964872269617414 0 0 0
1562 521 2 0.5564 -17.643879071516928 -18.79861177434426 -9.871575852614225 0 0 0
3172 1058 1 -1.1128 -16.087481909869233 -6.570443656785338 -0.036496509842791625 0 0 0
3633 1211 2 0.5564 -17.597111854953106 -14.65627570267631 -8.080128228988219 0 0 0
3631 1211 1 -1.1128 -16.787855338619636 -14.471549481863988 -7.603479903923347 0 0 0
1178 393 2 0.5564 -12.917205246553468 -17.223342232719354 -7.999693229911815 0 0 0
1306 436 1 -1.1128 -1.7754469945781217 -3.2473175526724347 -17.699649797866602 0 0 0
1533 511 2 0.5564 -15.475372915313809 -13.506714135235129 -8.32031318058361 0 0 0
1531 511 1 -1.1128 -14.864056265136462 -12.862038107306727 -8.676540255628614 0 0 0
1439 480 2 0.5564 -17.162659245557226 -17.444272310687015 -11.444247420724654 1 1 0
3515 1172 2 0.5564 -8.237741823331467 -18.21743232361464 -1.7837016934346934 1 0 0
3402 1134 2 0.5564 -0.8407632313993005 -14.99679701240356 -2.044296282568812 0 0 0
2068 690 1 -1.1128 -19.015808841289697 -17.4272613582474 -1.483792103196496 0 0 0
1835 612 2 0.5564 -8.732946302459355 -14.34951539274351 -13.281846329352526 0 0 0
1489 497 1 -1.1128 -18.110019369169894 -14.670689947093233 -16.590337985264927 1 0 0
1143 381 2 0.5564 -13.83040887169005 -19.306224693609167 -11.027139462860129 0 0 0
1684 562 1 -1.1128 -10.904179487299341 -18.72157741987327 -9.748283147503445 0 0 0
1686 562 2 0.5564 -10.725789911147556 -18.44652409249897 -10.647580914324054 0 0 0
5144 1715 2 0.5564 -4.8974887573204775 -13.288969847093943 -18.81446804882902 0 1 1
1215 405 2 0.5564 -11.497552921511959 -14.649475389730638 -11.224921426873314 0 0 0
1213 405 1 -1.1128 -11.926461980405776 -14.435025991181519 -12.053330359047562 0 0 0
1214 405 2 0.5564 -12.654273538384171 -15.053755764781343 -12.113967531321947 0 0 0
2736 912 2 0.5564 -12.663855478628843 -12.86124682796715 -12.69160973060691 0 0 0
3711 1237 2 0.5564 -7.395427608349474 -17.72250665694516 -8.623981817743829 0 0 0
1834 612 1 -1.1128 -9.461655814866063 -13.909625662512575 -13.719671865022388 0 0 0
1608 536 2 0.5564 -7.183383881461181 -15.474453431153652 -12.177806312203405 0 0 0
3794 1265 2 0.5564 -9.295833557060318 -15.639300308283877 -9.1769198180427 0 0 0
205 69 1 -1.1128 -12.059513624266065 -8.94540278334816 -0.4567533081241848 0 0 -1
3793 1265 1 -1.1128 -8.432479951387284 -15.968186051115168 -8.926584444384073 0 0 0
3795 1265 2 0.5564 -7.816199475606565 -15.407700854182199 -9.398037400305737 0 0 0
2734 912 1 -1.1128 -13.260825068309265 -12.117242977804317 -12.770973445417201 0 0 0
1791 597 2 0.5564 -5.657774949652508 -13.407687642929025 -11.767310931095029 0 1 0
1179 393 2 0.5564 -11.540576205055531 -17.616631694316983 -8.491694783235989 0 0 0
1836 612 2 0.5564 -10.221583743135742 -14.098325725699834 -13.169113128479127 0 0 0
1789 597 1 -1.1128 -6.2674158011400465 -13.199971990173927 -11.059211278207178 0 1 0
4260 1420 2 0.5564 -7.681668916979168 -14.401455565902406 -6.003220661168591 0 0 0
4259 1420 2 0.5564 -6.85217593632542 -13.138668099882473 -5.90752756575438 0 0 0
1225 409 1 -1.1128 -4.8894429090799605 -4.759784742549858 -6.001637174223912 0 0 0
1177 393 1 -1.1128 -11.99565908832016 -16.968649296191238 -7.953891422530862 0 0 0
2144 715 2 0.5564 -10.461893892435238 -16.717265831500423 -5.443485615161864 0 1 0
2270 757 2 0.5564 -11.202002793647328 -14.00539631068997 -8.783928659567513 0 0 0
2269 757 1 -1.1128 -10.861688552220805 -14.776623684612577 -9.237366762500184 0 0 0
2271 757 2 0.5564 -11.45942919850533 -15.482701201807831 -8.991655135179668 0 0 0
4171 1391 1 -1.1128 -2.354286368758711 -18.92570057903958 -10.515223786465791 0 1 1
2069 690 2 0.5564 -18.821826436589724 -17.270300230228067 -2.4078849725079152 0 0 0
1606 536 1 -1.1128 -7.809742401853626 -15.870356875482459 -12.78373436793889 0 0 0
1229 410 2 0.5564 -0.210158116636741 -4.277462098032025 -6.318730807084995 0 0 0
2352 784 2 0.5564 -0.23055783134431707 -4.050181645664894 -15.100100577614697 0 0 0
1029 343 2 0.5564 -0.0644265297852229 -7.945086388452669 -11.596605444280586 -1 0 0
3363 1121 2 0.5564 -1.3005471173443048 -17.6647731837228 -11.013263266832013 0 0 0
1217 406 2 0.5564 -0.2201632277373875 -13.54643083686377 -10.969525030406121 0 0 0
2223 741 2 0.5564 -6.434435661148688 -18.91751309247658 -10.680676440437493 0 1 0
2189 730 2 0.5564 -2.6305154208632793 -13.886597097155725 -11.331006116581111 0 0 0
2188 730 1 -1.1128 -3.5218999661356065 -14.207170566079238 -11.468409259748254 0 0 0
2190 730 2 0.5564 -3.52135097189705 -14.54070409349941 -12.3656093210694 0 0 0
2703 901 2 0.5564 -4.988436630972473 -16.606067229520484 -9.994942446951233 0 0 0
2702 901 2 0.5564 -4.730480713495801 -15.337026499488276 -10.779061871702517 0 0 0
2701 901 1 -1.1128 -5.356143154133568 -16.055451094922383 -10.686192317258504 0 0 0
2154 718 2 0.5564 -4.150581300339024 -13.842656924135266 -7.402768977266737 0 0 0
2152 718 1 -1.1128 -3.9354239407198452 -14.091078268396455 -6.503765362085053 0 0 0
2153 718 2 0.5564 -4.53380119592928 -13.575917965877732 -5.962685375126783 0 0 0
2311 771 1 -1.1128 -4.191477265973825 -17.45640975709085 -8.506581420325077 0 0 0
1216 406 1 -1.1128 -1.0297917611254448 -13.226546941781102 -11.367506308286167 0 0 0
5740 1914 1 -1.1128 -0.7100278776636095 -15.091060971799411 -7.475195430544595 0 0 1
3200 1067 2 0.5564 -6.686182016782775 -7.6614876456712295 -0.7223944028731957 0 0 0
553 185 1 -1.1128 -18.302909857399616 -7.947478058364167 -9.933652174608936 0 0 0
163 55 1 -1.1128 -14.216902290142833 -6.368022962976921 -12.74218551976352 0 0 0
533 178 2 0.5564 -14.536046671833564 -9.647792824776934 -13.323830075305684 0 0 0
1839 613 2 0.5564 -0.42938716766572327 -10.148076852542774 -12.155373675254003 0 0 0
1297 433 1 -1.1128 -5.577507084053812 -5.693173683429849 -19.135697563138933 0 0 0
2626 876 1 -1.1128 -18.76967511482953 -8.77082784972617 -7.254165365641688 0 0 0
2547 849 2 0.5564 -18.06339057813998 -12.68454499631627 -7.381804448430849 0 0 0
555 185 2 0.5564 -17.84971222565751 -8.282393019829861 -10.707381672983935 0 0 0
1573 525 1 -1.1128 -17.843986897230874 -5.376924629548437 -9.091727190098965 0 0 0
1574 525 2 0.5564 -18.014664672696743 -4.758745727261864 -9.802316617756489 0 0 0
600 200 2 0.5564 -17.314962519191635 -11.393763671257597 -12.558818372874082 0 0 0
2113 705 1 -1.1128 -17.23076919351967 -9.685560069825016 -12.164861885663864 0 0 0
2114 705 2 0.5564 -16.294375201688357 -9.48874608229745 -12.190224019528742 0 0 0
598 200 1 -1.1128 -17.294675305092564 -12.343916473555971 -12.672888176100255 0 0 0
599 200 2 0.5564 -16.523809809406462 -12.628177890807962 -12.181793995698284 0 0 0
1567 523 1 -1.1128 -15.93536059890906 -8.147667816216819 -7.510897259319021 0 0 0
1568 523 2 0.5564 -15.432210227099326 -7.522914448647896 -8.03313766092362 0 0 0
1569 523 2 0.5564 -16.84785027225686 -7.889930093048598 -7.641842216123008 0 0 0
3125 1042 2 0.5564 -16.96625278423765 -11.088562844402439 -6.781712207883912 0 0 0
3124 1042 1 -1.1128 -16.04657940494144 -10.99931263471297 -7.031607680388058 0 0 0
2545 849 1 -1.1128 -18.574261164178075 -11.972078039764195 -6.997596583213657 0 0 0
2627 876 2 0.5564 -19.127700057163896 -9.562719291001926 -6.852992594621455 0 0 0