ITEM: TIMESTEP
0
ITEM: NUMBER OF ATOMS
6000
ITEM: BOX BOUNDS pp pp pp
-2.1300000000000008e+01 2.1300000000000008e+01
-2.1300000000000008e+01 2.1300000000000008e+01
-2.1300000000000008e+01 2.1300000000000008e+01
ITEM: ATOMS id type xs ys zs
1 1 0.0375587 0.0375587 0.0375587
2 2 0.0600282 0.0375587 0.0375587
3 2 0.0319252 0.0593105 0.0375587
4 1 0.0375587 0.112676 0.0375587
5 2 0.0600282 0.112676 0.0375587
6 2 0.0319252 0.134428 0.0375587
40 1 0.112676 0.0375587 0.0375587
41 2 0.135146 0.0375587 0.0375587
42 2 0.107043 0.0593105 0.0375587
43 1 0.112676 0.112676 0.0375587
44 2 0.135146 0.112676 0.0375587
45 2 0.107043 0.134428 0.0375587
508 1 0.0375587 0.0375587 0.112676
509 2 0.0600282 0.0375587 0.112676
510 2 0.0319252 0.0593105 0.112676
511 1 0.0375587 0.112676 0.112676
512 2 0.0600282 0.112676 0.112676
513 2 0.0319252 0.134428 0.112676
547 1 0.112676 0.0375587 0.112676
548 2 0.135146 0.0375587 0.112676
549 2 0.107043 0.0593105 0.112676
550 1 0.112676 0.112676 0.112676
551 2 0.135146 0.112676 0.112676
552 2 0.107043 0.134428 0.112676
79 1 0.187793 0.0375587 0.0375587
80 2 0.210263 0.0375587 0.0375587
81 2 0.18216 0.0593105 0.0375587
82 1 0.187793 0.112676 0.0375587
83 2 0.210263 0.112676 0.0375587
84 2 0.18216 0.134428 0.0375587
118 1 0.262911 0.0375587 0.0375587
119 2 0.28538 0.0375587 0.0375587
120 2 0.257277 0.0593105 0.0375587
121 1 0.262911 0.112676 0.0375587
122 2 0.28538 0.112676 0.0375587
123 2 0.257277 0.134428 0.0375587
159 2 0.332395 0.0593105 0.0375587
162 2 0.332395 0.134428 0.0375587
586 1 0.187793 0.0375587 0.112676
587 2 0.210263 0.0375587 0.112676
588 2 0.18216 0.0593105 0.112676
589 1 0.187793 0.112676 0.112676
590 2 0.210263 0.112676 0.112676
591 2 0.18216 0.134428 0.112676
625 1 0.262911 0.0375587 0.112676
626 2 0.28538 0.0375587 0.112676
627 2 0.257277 0.0593105 0.112676
628 1 0.262911 0.112676 0.112676
629 2 0.28538 0.112676 0.112676
630 2 0.257277 0.134428 0.112676
666 2 0.332395 0.0593105 0.112676
669 2 0.332395 0.134428 0.112676
157 1 0.338028 0.0375587 0.0375587
158 2 0.360498 0.0375587 0.0375587
160 1 0.338028 0.112676 0.0375587
161 2 0.360498 0.112676 0.0375587
196 1 0.413146 0.0375587 0.0375587
197 2 0.435615 0.0375587 0.0375587
198 2 0.407512 0.0593105 0.0375587
199 1 0.413146 0.112676 0.0375587
200 2 0.435615 0.112676 0.0375587
201 2 0.407512 0.134428 0.0375587
235 1 0.488263 0.0375587 0.0375587
237 2 0.482629 0.0593105 0.0375587
238 1 0.488263 0.112676 0.0375587
240 2 0.482629 0.134428 0.0375587
664 1 0.338028 0.0375587 0.112676
665 2 0.360498 0.0375587 0.112676
667 1 0.338028 0.112676 0.112676
668 2 0.360498 0.112676 0.112676
703 1 0.413146 0.0375587 0.112676
704 2 0.435615 0.0375587 0.112676
705 2 0.407512 0.0593105 0.112676
706 1 0.413146 0.112676 0.112676
707 2 0.435615 0.112676 0.112676
708 2 0.407512 0.134428 0.112676
742 1 0.488263 0.0375587 0.112676
744 2 0.482629 0.0593105 0.112676
745 1 0.488263 0.112676 0.112676
747 2 0.482629 0.134428 0.112676
7 1 0.0375587 0.187793 0.0375587
8 2 0.0600282 0.187793 0.0375587
9 2 0.0319252 0.209545 0.0375587
10 1 0.0375587 0.262911 0.0375587
11 2 0.0600282 0.262911 0.0375587
12 2 0.0319252 0.284663 0.0375587
46 1 0.112676 0.187793 0.0375587
47 2 0.135146 0.187793 0.0375587
48 2 0.107043 0.209545 0.0375587
49 1 0.112676 0.262911 0.0375587
50 2 0.135146 0.262911 0.0375587
51 2 0.107043 0.284663 0.0375587
514 1 0.0375587 0.187793 0.112676
515 2 0.0600282 0.187793 0.112676
516 2 0.0319252 0.209545 0.112676
517 1 0.0375587 0.262911 0.112676
518 2 0.0600282 0.262911 0.112676
519 2 0.0319252 0.284663 0.112676
553 1 0.112676 0.187793 0.112676
554 2 0.135146 0.187793 0.112676
555 2 0.107043 0.209545 0.112676
556 1 0.112676 0.262911 0.112676
557 2 0.135146 0.262911 0.112676
558 2 0.107043 0.284663 0.112676
85 1 0.187793 0.187793 0.0375587
86 2 0.210263 0.187793 0.0375587
87 2 0.18216 0.209545 0.0375587
88 1 0.187793 0.262911 0.0375587
89 2 0.210263 0.262911 0.0375587
90 2 0.18216 0.284663 0.0375587
124 1 0.262911 0.187793 0.0375587
125 2 0.28538 0.187793 0.0375587
126 2 0.257277 0.209545 0.0375587
127 1 0.262911 0.262911 0.0375587
128 2 0.28538 0.262911 0.0375587
129 2 0.257277 0.284663 0.0375587
165 2 0.332395 0.209545 0.0375587
168 2 0.332395 0.284663 0.0375587
592 1 0.187793 0.187793 0.112676
593 2 0.210263 0.187793 0.112676
594 2 0.18216 0.209545 0.112676
595 1 0.187793 0.262911 0.112676
596 2 0.210263 0.262911 0.112676
597 2 0.18216 0.284663 0.112676
631 1 0.262911 0.187793 0.112676
632 2 0.28538 0.187793 0.112676
633 2 0.257277 0.209545 0.112676
634 1 0.262911 0.262911 0.112676
635 2 0.28538 0.262911 0.112676
636 2 0.257277 0.284663 0.112676
672 2 0.332395 0.209545 0.112676
675 2 0.332395 0.284663 0.112676
163 1 0.338028 0.187793 0.0375587
164 2 0.360498 0.187793 0.0375587
166 1 0.338028 0.262911 0.0375587
167 2 0.360498 0.262911 0.0375587
202 1 0.413146 0.187793 0.0375587
203 2 0.435615 0.187793 0.0375587
204 2 0.407512 0.209545 0.0375587
205 1 0.413146 0.262911 0.0375587
206 2 0.435615 0.262911 0.0375587
207 2 0.407512 0.284663 0.0375587
241 1 0.488263 0.187793 0.0375587
243 2 0.482629 0.209545 0.0375587
244 1 0.488263 0.262911 0.0375587
246 2 0.482629 0.284663 0.0375587
670 1 0.338028 0.187793 0.112676
671 2 0.360498 0.187793 0.112676
673 1 0.338028 0.262911 0.112676
674 2 0.360498 0.262911 0.112676
709 1 0.413146 0.187793 0.112676
710 2 0.435615 0.187793 0.112676
711 2 0.407512 0.209545 0.112676
712 1 0.413146 0.262911 0.112676
713 2 0.435615 0.262911 0.112676
714 2 0.407512 0.284663 0.112676
748 1 0.488263 0.187793 0.112676
750 2 0.482629 0.209545 0.112676
751 1 0.488263 0.262911 0.112676
753 2 0.482629 0.284663 0.112676
13 1 0.0375587 0.338028 0.0375587
14 2 0.0600282 0.338028 0.0375587
15 2 0.0319252 0.35978 0.0375587
16 1 0.0375587 0.413146 0.0375587
17 2 0.0600282 0.413146 0.0375587
18 2 0.0319252 0.434897 0.0375587
19 1 0.0375587 0.488263 0.0375587
20 2 0.0600282 0.488263 0.0375587
52 1 0.112676 0.338028 0.0375587
53 2 0.135146 0.338028 0.0375587
54 2 0.107043 0.35978 0.0375587
55 1 0.112676 0.413146 0.0375587
56 2 0.135146 0.413146 0.0375587
57 2 0.107043 0.434897 0.0375587
58 1 0.112676 0.488263 0.0375587
59 2 0.135146 0.488263 0.0375587
520 1 0.0375587 0.338028 0.112676
521 2 0.0600282 0.338028 0.112676
522 2 0.0319252 0.35978 0.112676
523 1 0.0375587 0.413146 0.112676
524 2 0.0600282 0.413146 0.112676
525 2 0.0319252 0.434897 0.112676
526 1 0.0375587 0.488263 0.112676
527 2 0.0600282 0.488263 0.112676
559 1 0.112676 0.338028 0.112676
560 2 0.135146 0.338028 0.112676
561 2 0.107043 0.35978 0.112676
562 1 0.112676 0.413146 0.112676
563 2 0.135146 0.413146 0.112676
564 2 0.107043 0.434897 0.112676
565 1 0.112676 0.488263 0.112676
566 2 0.135146 0.488263 0.112676
91 1 0.187793 0.338028 0.0375587
92 2 0.210263 0.338028 0.0375587
93 2 0.18216 0.35978 0.0375587
94 1 0.187793 0.413146 0.0375587
95 2 0.210263 0.413146 0.0375587
96 2 0.18216 0.434897 0.0375587
97 1 0.187793 0.488263 0.0375587
98 2 0.210263 0.488263 0.0375587
130 1 0.262911 0.338028 0.0375587
131 2 0.28538 0.338028 0.0375587
132 2 0.257277 0.35978 0.0375587
133 1 0.262911 0.413146 0.0375587
134 2 0.28538 0.413146 0.0375587
135 2 0.257277 0.434897 0.0375587
136 1 0.262911 0.488263 0.0375587
137 2 0.28538 0.488263 0.0375587
171 2 0.332395 0.35978 0.0375587
174 2 0.332395 0.434897 0.0375587
598 1 0.187793 0.338028 0.112676
599 2 0.210263 0.338028 0.112676
600 2 0.18216 0.35978 0.112676
601 1 0.187793 0.413146 0.112676
602 2 0.210263 0.413146 0.112676
603 2 0.18216 0.434897 0.112676
604 1 0.187793 0.488263 0.112676
605 2 0.210263 0.488263 0.112676
637 1 0.262911 0.338028 0.112676
638 2 0.28538 0.338028 0.112676
639 2 0.257277 0.35978 0.112676
640 1 0.262911 0.413146 0.112676
641 2 0.28538 0.413146 0.112676
642 2 0.257277 0.434897 0.112676
643 1 0.262911 0.488263 0.112676
644 2 0.28538 0.488263 0.112676
678 2 0.332395 0.35978 0.112676
681 2 0.332395 0.434897 0.112676
169 1 0.338028 0.338028 0.0375587
170 2 0.360498 0.338028 0.0375587
172 1 0.338028 0.413146 0.0375587
173 2 0.360498 0.413146 0.0375587
175 1 0.338028 0.488263 0.0375587
176 2 0.360498 0.488263 0.0375587
208 1 0.413146 0.338028 0.0375587
209 2 0.435615 0.338028 0.0375587
210 2 0.407512 0.35978 0.0375587
211 1 0.413146 0.413146 0.0375587
212 2 0.435615 0.413146 0.0375587
213 2 0.407512 0.434897 0.0375587
214 1 0.413146 0.488263 0.0375587
215 2 0.435615 0.488263 0.0375587
247 1 0.488263 0.338028 0.0375587
249 2 0.482629 0.35978 0.0375587
250 1 0.488263 0.413146 0.0375587
252 2 0.482629 0.434897 0.0375587
253 1 0.488263 0.488263 0.0375587
676 1 0.338028 0.338028 0.112676
677 2 0.360498 0.338028 0.112676
679 1 0.338028 0.413146 0.112676
680 2 0.360498 0.413146 0.112676
682 1 0.338028 0.488263 0.112676
683 2 0.360498 0.488263 0.112676
715 1 0.413146 0.338028 0.112676
716 2 0.435615 0.338028 0.112676
717 2 0.407512 0.35978 0.112676
718 1 0.413146 0.413146 0.112676
719 2 0.435615 0.413146 0.112676
720 2 0.407512 0.434897 0.112676
721 1 0.413146 0.488263 0.112676
722 2 0.435615 0.488263 0.112676
754 1 0.488263 0.338028 0.112676
756 2 0.482629 0.35978 0.112676
757 1 0.488263 0.413146 0.112676
759 2 0.482629 0.434897 0.112676
760 1 0.488263 0.488263 0.112676
1015 1 0.0375587 0.0375587 0.187793
1016 2 0.0600282 0.0375587 0.187793
1017 2 0.0319252 0.0593105 0.187793
1018 1 0.0375587 0.112676 0.187793
1019 2 0.0600282 0.112676 0.187793
1020 2 0.0319252 0.134428 0.187793
1054 1 0.112676 0.0375587 0.187793
1055 2 0.135146 0.0375587 0.187793
1056 2 0.107043 0.0593105 0.187793
1057 1 0.112676 0.112676 0.187793
1058 2 0.135146 0.112676 0.187793
1059 2 0.107043 0.134428 0.187793
1522 1 0.0375587 0.0375587 0.262911
1523 2 0.0600282 0.0375587 0.262911
1524 2 0.0319252 0.0593105 0.262911
1525 1 0.0375587 0.112676 0.262911
1526 2 0.0600282 0.112676 0.262911
1527 2 0.0319252 0.134428 0.262911
1561 1 0.112676 0.0375587 0.262911
1562 2 0.135146 0.0375587 0.262911
1563 2 0.107043 0.0593105 0.262911
1564 1 0.112676 0.112676 0.262911
1565 2 0.135146 0.112676 0.262911
1566 2 0.107043 0.134428 0.262911
1093 1 0.187793 0.0375587 0.187793
1094 2 0.210263 0.0375587 0.187793
1095 2 0.18216 0.0593105 0.187793
1096 1 0.187793 0.112676 0.187793
1097 2 0.210263 0.112676 0.187793
1098 2 0.18216 0.134428 0.187793
1132 1 0.262911 0.0375587 0.187793
1133 2 0.28538 0.0375587 0.187793
1134 2 0.257277 0.0593105 0.187793
1135 1 0.262911 0.112676 0.187793
1136 2 0.28538 0.112676 0.187793
1137 2 0.257277 0.134428 0.187793
1173 2 0.332395 0.0593105 0.187793
1176 2 0.332395 0.134428 0.187793
1600 1 0.187793 0.0375587 0.262911
1601 2 0.210263 0.0375587 0.262911
1602 2 0.18216 0.0593105 0.262911
1603 1 0.187793 0.112676 0.262911
1604 2 0.210263 0.112676 0.262911
1605 2 0.18216 0.134428 0.262911
1639 1 0.262911 0.0375587 0.262911
1640 2 0.28538 0.0375587 0.262911
1641 2 0.257277 0.0593105 0.262911
1642 1 0.262911 0.112676 0.262911
1643 2 0.28538 0.112676 0.262911
1644 2 0.257277 0.134428 0.262911
1680 2 0.332395 0.0593105 0.262911
1683 2 0.332395 0.134428 0.262911
1171 1 0.338028 0.0375587 0.187793
1172 2 0.360498 0.0375587 0.187793
1174 1 0.338028 0.112676 0.187793
1175 2 0.360498 0.112676 0.187793
1210 1 0.413146 0.0375587 0.187793
1211 2 0.435615 0.0375587 0.187793
1212 2 0.407512 0.0593105 0.187793
1213 1 0.413146 0.112676 0.187793
1214 2 0.435615 0.112676 0.187793
1215 2 0.407512 0.134428 0.187793
1249 1 0.488263 0.0375587 0.187793
1251 2 0.482629 0.0593105 0.187793
1252 1 0.488263 0.112676 0.187793
1254 2 0.482629 0.134428 0.187793
1678 1 0.338028 0.0375587 0.262911
1679 2 0.360498 0.0375587 0.262911
1681 1 0.338028 0.112676 0.262911
1682 2 0.360498 0.112676 0.262911
1717 1 0.413146 0.0375587 0.262911
1718 2 0.435615 0.0375587 0.262911
1719 2 0.407512 0.0593105 0.262911
1720 1 0.413146 0.112676 0.262911
1721 2 0.435615 0.112676 0.262911
1722 2 0.407512 0.134428 0.262911
1756 1 0.488263 0.0375587 0.262911
1758 2 0.482629 0.0593105 0.262911
1759 1 0.488263 0.112676 0.262911
1761 2 0.482629 0.134428 0.262911
1021 1 0.0375587 0.187793 0.187793
1022 2 0.0600282 0.187793 0.187793
1023 2 0.0319252 0.209545 0.187793
1024 1 0.0375587 0.262911 0.187793
1025 2 0.0600282 0.262911 0.187793
1026 2 0.0319252 0.284663 0.187793
1060 1 0.112676 0.187793 0.187793
1061 2 0.135146 0.187793 0.187793
1062 2 0.107043 0.209545 0.187793
1063 1 0.112676 0.262911 0.187793
1064 2 0.135146 0.262911 0.187793
1065 2 0.107043 0.284663 0.187793
1528 1 0.0375587 0.187793 0.262911
1529 2 0.0600282 0.187793 0.262911
1530 2 0.0319252 0.209545 0.262911
1531 1 0.0375587 0.262911 0.262911
1532 2 0.0600282 0.262911 0.262911
1533 2 0.0319252 0.284663 0.262911
1567 1 0.112676 0.187793 0.262911
1568 2 0.135146 0.187793 0.262911
1569 2 0.107043 0.209545 0.262911
1570 1 0.112676 0.262911 0.262911
1571 2 0.135146 0.262911 0.262911
1572 2 0.107043 0.284663 0.262911
1099 1 0.187793 0.187793 0.187793
1100 2 0.210263 0.187793 0.187793
1101 2 0.18216 0.209545 0.187793
1102 1 0.187793 0.262911 0.187793
1103 2 0.210263 0.262911 0.187793
1104 2 0.18216 0.284663 0.187793
1138 1 0.262911 0.187793 0.187793
1139 2 0.28538 0.187793 0.187793
1140 2 0.257277 0.209545 0.187793
1141 1 0.262911 0.262911 0.187793
1142 2 0.28538 0.262911 0.187793
1143 2 0.257277 0.284663 0.187793
1179 2 0.332395 0.209545 0.187793
1182 2 0.332395 0.284663 0.187793
1606 1 0.187793 0.187793 0.262911
1607 2 0.210263 0.187793 0.262911
1608 2 0.18216 0.209545 0.262911
1609 1 0.187793 0.262911 0.262911
1610 2 0.210263 0.262911 0.262911
1611 2 0.18216 0.284663 0.262911
1645 1 0.262911 0.187793 0.262911
1646 2 0.28538 0.187793 0.262911
1647 2 0.257277 0.209545 0.262911
1648 1 0.262911 0.262911 0.262911
1649 2 0.28538 0.262911 0.262911
1650 2 0.257277 0.284663 0.262911
1686 2 0.332395 0.209545 0.262911
1689 2 0.332395 0.284663 0.262911
1177 1 0.338028 0.187793 0.187793
1178 2 0.360498 0.187793 0.187793
1180 1 0.338028 0.262911 0.187793
1181 2 0.360498 0.262911 0.187793
1216 1 0.413146 0.187793 0.187793
1217 2 0.435615 0.187793 0.187793
1218 2 0.407512 0.209545 0.187793
1219 1 0.413146 0.262911 0.187793
1220 2 0.435615 0.262911 0.187793
1221 2 0.407512 0.284663 0.187793
1255 1 0.488263 0.187793 0.187793
1257 2 0.482629 0.209545 0.187793
1258 1 0.488263 0.262911 0.187793
1260 2 0.482629 0.284663 0.187793
1684 1 0.338028 0.187793 0.262911
1685 2 0.360498 0.187793 0.262911
1687 1 0.338028 0.262911 0.262911
1688 2 0.360498 0.262911 0.262911
1723 1 0.413146 0.187793 0.262911
1724 2 0.435615 0.187793 0.262911
1725 2 0.407512 0.209545 0.262911
1726 1 0.413146 0.262911 0.262911
1727 2 0.435615 0.262911 0.262911
1728 2 0.407512 0.284663 0.262911
1762 1 0.488263 0.187793 0.262911
1764 2 0.482629 0.209545 0.262911
1765 1 0.488263 0.262911 0.262911
1767 2 0.482629 0.284663 0.262911
1027 1 0.0375587 0.338028 0.187793
1028 2 0.0600282 0.338028 0.187793
1029 2 0.0319252 0.35978 0.187793
1030 1 0.0375587 0.413146 0.187793
1031 2 0.0600282 0.413146 0.187793
1032 2 0.0319252 0.434897 0.187793
1033 1 0.0375587 0.488263 0.187793
1034 2 0.0600282 0.488263 0.187793
1066 1 0.112676 0.338028 0.187793
1067 2 0.135146 0.338028 0.187793
1068 2 0.107043 0.35978 0.187793
1069 1 0.112676 0.413146 0.187793
1070 2 0.135146 0.413146 0.187793
1071 2 0.107043 0.434897 0.187793
1072 1 0.112676 0.488263 0.187793
1073 2 0.135146 0.488263 0.187793
1534 1 0.0375587 0.338028 0.262911
1535 2 0.0600282 0.338028 0.262911
1536 2 0.0319252 0.35978 0.262911
1537 1 0.0375587 0.413146 0.262911
1538 2 0.0600282 0.413146 0.262911
1539 2 0.0319252 0.434897 0.262911
1540 1 0.0375587 0.488263 0.262911
1541 2 0.0600282 0.488263 0.262911
1573 1 0.112676 0.338028 0.262911
1574 2 0.135146 0.338028 0.262911
1575 2 0.107043 0.35978 0.262911
1576 1 0.112676 0.413146 0.262911
1577 2 0.135146 0.413146 0.262911
1578 2 0.107043 0.434897 0.262911
1579 1 0.112676 0.488263 0.262911
1580 2 0.135146 0.488263 0.262911
1105 1 0.187793 0.338028 0.187793
1106 2 0.210263 0.338028 0.187793
1107 2 0.18216 0.35978 0.187793
1108 1 0.187793 0.413146 0.187793
1109 2 0.210263 0.413146 0.187793
1110 2 0.18216 0.434897 0.187793
1111 1 0.187793 0.488263 0.187793
1112 2 0.210263 0.488263 0.187793
1144 1 0.262911 0.338028 0.187793
1145 2 0.28538 0.338028 0.187793
1146 2 0.257277 0.35978 0.187793
1147 1 0.262911 0.413146 0.187793
1148 2 0.28538 0.413146 0.187793
1149 2 0.257277 0.434897 0.187793
1150 1 0.262911 0.488263 0.187793
1151 2 0.28538 0.488263 0.187793
1185 2 0.332395 0.35978 0.187793
1188 2 0.332395 0.434897 0.187793
1612 1 0.187793 0.338028 0.262911
1613 2 0.210263 0.338028 0.262911
1614 2 0.18216 0.35978 0.262911
1615 1 0.187793 0.413146 0.262911
1616 2 0.210263 0.413146 0.262911
1617 2 0.18216 0.434897 0.262911
1618 1 0.187793 0.488263 0.262911
1619 2 0.210263 0.488263 0.262911
1651 1 0.262911 0.338028 0.262911
1652 2 0.28538 0.338028 0.262911
1653 2 0.257277 0.35978 0.262911
1654 1 0.262911 0.413146 0.262911
1655 2 0.28538 0.413146 0.262911
1656 2 0.257277 0.434897 0.262911
1657 1 0.262911 0.488263 0.262911
1658 2 0.28538 0.488263 0.262911
1692 2 0.332395 0.35978 0.262911
1695 2 0.332395 0.434897 0.262911
1183 1 0.338028 0.338028 0.187793
1184 2 0.360498 0.338028 0.187793
1186 1 0.338028 0.413146 0.187793
1187 2 0.360498 0.413146 0.187793
1189 1 0.338028 0.488263 0.187793
1190 2 0.360498 0.488263 0.187793
1222 1 0.413146 0.338028 0.187793
1223 2 0.435615 0.338028 0.187793
1224 2 0.407512 0.35978 0.187793
1225 1 0.413146 0.413146 0.187793
1226 2 0.435615 0.413146 0.187793
1227 2 0.407512 0.434897 0.187793
1228 1 0.413146 0.488263 0.187793
1229 2 0.435615 0.488263 0.187793
1261 1 0.488263 0.338028 0.187793
1263 2 0.482629 0.35978 0.187793
1264 1 0.488263 0.413146 0.187793
1266 2 0.482629 0.434897 0.187793
1267 1 0.488263 0.488263 0.187793
1690 1 0.338028 0.338028 0.262911
1691 2 0.360498 0.338028 0.262911
1693 1 0.338028 0.413146 0.262911
1694 2 0.360498 0.413146 0.262911
1696 1 0.338028 0.488263 0.262911
1697 2 0.360498 0.488263 0.262911
1729 1 0.413146 0.338028 0.262911
1730 2 0.435615 0.338028 0.262911
1731 2 0.407512 0.35978 0.262911
1732 1 0.413146 0.413146 0.262911
1733 2 0.435615 0.413146 0.262911
1734 2 0.407512 0.434897 0.262911
1735 1 0.413146 0.488263 0.262911
1736 2 0.435615 0.488263 0.262911
1768 1 0.488263 0.338028 0.262911
1770 2 0.482629 0.35978 0.262911
1771 1 0.488263 0.413146 0.262911
1773 2 0.482629 0.434897 0.262911
1774 1 0.488263 0.488263 0.262911
2029 1 0.0375587 0.0375587 0.338028
2030 2 0.0600282 0.0375587 0.338028
2031 2 0.0319252 0.0593105 0.338028
2032 1 0.0375587 0.112676 0.338028
2033 2 0.0600282 0.112676 0.338028
2034 2 0.0319252 0.134428 0.338028
2068 1 0.112676 0.0375587 0.338028
2069 2 0.135146 0.0375587 0.338028
2070 2 0.107043 0.0593105 0.338028
2071 1 0.112676 0.112676 0.338028
2072 2 0.135146 0.112676 0.338028
2073 2 0.107043 0.134428 0.338028
2536 1 0.0375587 0.0375587 0.413146
2537 2 0.0600282 0.0375587 0.413146
2538 2 0.0319252 0.0593105 0.413146
2539 1 0.0375587 0.112676 0.413146
2540 2 0.0600282 0.112676 0.413146
2541 2 0.0319252 0.134428 0.413146
2575 1 0.112676 0.0375587 0.413146
2576 2 0.135146 0.0375587 0.413146
2577 2 0.107043 0.0593105 0.413146
2578 1 0.112676 0.112676 0.413146
2579 2 0.135146 0.112676 0.413146
2580 2 0.107043 0.134428 0.413146
3043 1 0.0375587 0.0375587 0.488263
3044 2 0.0600282 0.0375587 0.488263
3045 2 0.0319252 0.0593105 0.488263
3046 1 0.0375587 0.112676 0.488263
3047 2 0.0600282 0.112676 0.488263
3048 2 0.0319252 0.134428 0.488263
3082 1 0.112676 0.0375587 0.488263
3083 2 0.135146 0.0375587 0.488263
3084 2 0.107043 0.0593105 0.488263
3085 1 0.112676 0.112676 0.488263
3086 2 0.135146 0.112676 0.488263
3087 2 0.107043 0.134428 0.488263
2107 1 0.187793 0.0375587 0.338028
2108 2 0.210263 0.0375587 0.338028
2109 2 0.18216 0.0593105 0.338028
2110 1 0.187793 0.112676 0.338028
2111 2 0.210263 0.112676 0.338028
2112 2 0.18216 0.134428 0.338028
2146 1 0.262911 0.0375587 0.338028
2147 2 0.28538 0.0375587 0.338028
2148 2 0.257277 0.0593105 0.338028
2149 1 0.262911 0.112676 0.338028
2150 2 0.28538 0.112676 0.338028
2151 2 0.257277 0.134428 0.338028
2187 2 0.332395 0.0593105 0.338028
2190 2 0.332395 0.134428 0.338028
2614 1 0.187793 0.0375587 0.413146
2615 2 0.210263 0.0375587 0.413146
2616 2 0.18216 0.0593105 0.413146
2617 1 0.187793 0.112676 0.413146
2618 2 0.210263 0.112676 0.413146
2619 2 0.18216 0.134428 0.413146
2653 1 0.262911 0.0375587 0.413146
2654 2 0.28538 0.0375587 0.413146
2655 2 0.257277 0.0593105 0.413146
2656 1 0.262911 0.112676 0.413146
2657 2 0.28538 0.112676 0.413146
2658 2 0.257277 0.134428 0.413146
2694 2 0.332395 0.0593105 0.413146
2697 2 0.332395 0.134428 0.413146
3121 1 0.187793 0.0375587 0.488263
3122 2 0.210263 0.0375587 0.488263
3123 2 0.18216 0.0593105 0.488263
3124 1 0.187793 0.112676 0.488263
3125 2 0.210263 0.112676 0.488263
3126 2 0.18216 0.134428 0.488263
3160 1 0.262911 0.0375587 0.488263
3161 2 0.28538 0.0375587 0.488263
3162 2 0.257277 0.0593105 0.488263
3163 1 0.262911 0.112676 0.488263
3164 2 0.28538 0.112676 0.488263
3165 2 0.257277 0.134428 0.488263
3201 2 0.332395 0.0593105 0.488263
3204 2 0.332395 0.134428 0.488263
2185 1 0.338028 0.0375587 0.338028
2186 2 0.360498 0.0375587 0.338028
2188 1 0.338028 0.112676 0.338028
2189 2 0.360498 0.112676 0.338028
2224 1 0.413146 0.0375587 0.338028
2225 2 0.435615 0.0375587 0.338028
2226 2 0.407512 0.0593105 0.338028
2227 1 0.413146 0.112676 0.338028
2228 2 0.435615 0.112676 0.338028
2229 2 0.407512 0.134428 0.338028
2263 1 0.488263 0.0375587 0.338028
2265 2 0.482629 0.0593105 0.338028
2266 1 0.488263 0.112676 0.338028
2268 2 0.482629 0.134428 0.338028
2692 1 0.338028 0.0375587 0.413146
2693 2 0.360498 0.0375587 0.413146
2695 1 0.338028 0.112676 0.413146
2696 2 0.360498 0.112676 0.413146
2731 1 0.413146 0.0375587 0.413146
2732 2 0.435615 0.0375587 0.413146
2733 2 0.407512 0.0593105 0.413146
2734 1 0.413146 0.112676 0.413146
2735 2 0.435615 0.112676 0.413146
2736 2 0.407512 0.134428 0.413146
2770 1 0.488263 0.0375587 0.413146
2772 2 0.482629 0.0593105 0.413146
2773 1 0.488263 0.112676 0.413146
2775 2 0.482629 0.134428 0.413146
3199 1 0.338028 0.0375587 0.488263
3200 2 0.360498 0.0375587 0.488263
3202 1 0.338028 0.112676 0.488263
3203 2 0.360498 0.112676 0.488263
3238 1 0.413146 0.0375587 0.488263
3239 2 0.435615 0.0375587 0.488263
3240 2 0.407512 0.0593105 0.488263
3241 1 0.413146 0.112676 0.488263
3242 2 0.435615 0.112676 0.488263
3243 2 0.407512 0.134428 0.488263
3277 1 0.488263 0.0375587 0.488263
3279 2 0.482629 0.0593105 0.488263
3280 1 0.488263 0.112676 0.488263
3282 2 0.482629 0.134428 0.488263
2035 1 0.0375587 0.187793 0.338028
2036 2 0.0600282 0.187793 0.338028
2037 2 0.0319252 0.209545 0.338028
2038 1 0.0375587 0.262911 0.338028
2039 2 0.0600282 0.262911 0.338028
2040 2 0.0319252 0.284663 0.338028
2074 1 0.112676 0.187793 0.338028
2075 2 0.135146 0.187793 0.338028
2076 2 0.107043 0.209545 0.338028
2077 1 0.112676 0.262911 0.338028
2078 2 0.135146 0.262911 0.338028
2079 2 0.107043 0.284663 0.338028
2542 1 0.0375587 0.187793 0.413146
2543 2 0.0600282 0.187793 0.413146
2544 2 0.0319252 0.209545 0.413146
2545 1 0.0375587 0.262911 0.413146
2546 2 0.0600282 0.262911 0.413146
2547 2 0.0319252 0.284663 0.413146
2581 1 0.112676 0.187793 0.413146
2582 2 0.135146 0.187793 0.413146
2583 2 0.107043 0.209545 0.413146
2584 1 0.112676 0.262911 0.413146
2585 2 0.135146 0.262911 0.413146
2586 2 0.107043 0.284663 0.413146
3049 1 0.0375587 0.187793 0.488263
3050 2 0.0600282 0.187793 0.488263
3051 2 0.0319252 0.209545 0.488263
3052 1 0.0375587 0.262911 0.488263
3053 2 0.0600282 0.262911 0.488263
3054 2 0.0319252 0.284663 0.488263
3088 1 0.112676 0.187793 0.488263
3089 2 0.135146 0.187793 0.488263
3090 2 0.107043 0.209545 0.488263
3091 1 0.112676 0.262911 0.488263
3092 2 0.135146 0.262911 0.488263
3093 2 0.107043 0.284663 0.488263
2113 1 0.187793 0.187793 0.338028
2114 2 0.210263 0.187793 0.338028
2115 2 0.18216 0.209545 0.338028
2116 1 0.187793 0.262911 0.338028
2117 2 0.210263 0.262911 0.338028
2118 2 0.18216 0.284663 0.338028
2152 1 0.262911 0.187793 0.338028
2153 2 0.28538 0.187793 0.338028
2154 2 0.257277 0.209545 0.338028
2155 1 0.262911 0.262911 0.338028
2156 2 0.28538 0.262911 0.338028
2157 2 0.257277 0.284663 0.338028
2193 2 0.332395 0.209545 0.338028
2196 2 0.332395 0.284663 0.338028
2620 1 0.187793 0.187793 0.413146
2621 2 0.210263 0.187793 0.413146
2622 2 0.18216 0.209545 0.413146
2623 1 0.187793 0.262911 0.413146
2624 2 0.210263 0.262911 0.413146
2625 2 0.18216 0.284663 0.413146
2659 1 0.262911 0.187793 0.413146
2660 2 0.28538 0.187793 0.413146
2661 2 0.257277 0.209545 0.413146
2662 1 0.262911 0.262911 0.413146
2663 2 0.28538 0.262911 0.413146
2664 2 0.257277 0.284663 0.413146
2700 2 0.332395 0.209545 0.413146
2703 2 0.332395 0.284663 0.413146
3127 1 0.187793 0.187793 0.488263
3128 2 0.210263 0.187793 0.488263
3129 2 0.18216 0.209545 0.488263
3130 1 0.187793 0.262911 0.488263
3131 2 0.210263 0.262911 0.488263
3132 2 0.18216 0.284663 0.488263
3166 1 0.262911 0.187793 0.488263
3167 2 0.28538 0.187793 0.488263
3168 2 0.257277 0.209545 0.488263
3169 1 0.262911 0.262911 0.488263
3170 2 0.28538 0.262911 0.488263
3171 2 0.257277 0.284663 0.488263
3207 2 0.332395 0.209545 0.488263
3210 2 0.332395 0.284663 0.488263
2191 1 0.338028 0.187793 0.338028
2192 2 0.360498 0.187793 0.338028
2194 1 0.338028 0.262911 0.338028
2195 2 0.360498 0.262911 0.338028
2230 1 0.413146 0.187793 0.338028
2231 2 0.435615 0.187793 0.338028
2232 2 0.407512 0.209545 0.338028
2233 1 0.413146 0.262911 0.338028
2234 2 0.435615 0.262911 0.338028
2235 2 0.407512 0.284663 0.338028
2269 1 0.488263 0.187793 0.338028
2271 2 0.482629 0.209545 0.338028
2272 1 0.488263 0.262911 0.338028
2274 2 0.482629 0.284663 0.338028
2698 1 0.338028 0.187793 0.413146
2699 2 0.360498 0.187793 0.413146
2701 1 0.338028 0.262911 0.413146
2702 2 0.360498 0.262911 0.413146
2737 1 0.413146 0.187793 0.413146
2738 2 0.435615 0.187793 0.413146
2739 2 0.407512 0.209545 0.413146
2740 1 0.413146 0.262911 0.413146
2741 2 0.435615 0.262911 0.413146
2742 2 0.407512 0.284663 0.413146
2776 1 0.488263 0.187793 0.413146
2778 2 0.482629 0.209545 0.413146
2779 1 0.488263 0.262911 0.413146
2781 2 0.482629 0.284663 0.413146
3205 1 0.338028 0.187793 0.488263
3206 2 0.360498 0.187793 0.488263
3208 1 0.338028 0.262911 0.488263
3209 2 0.360498 0.262911 0.488263
3244 1 0.413146 0.187793 0.488263
3245 2 0.435615 0.187793 0.488263
3246 2 0.407512 0.209545 0.488263
3247 1 0.413146 0.262911 0.488263
3248 2 0.435615 0.262911 0.488263
3249 2 0.407512 0.284663 0.488263
3283 1 0.488263 0.187793 0.488263
3285 2 0.482629 0.209545 0.488263
3286 1 0.488263 0.262911 0.488263
3288 2 0.482629 0.284663 0.488263
2041 1 0.0375587 0.338028 0.338028
2042 2 0.0600282 0.338028 0.338028
2043 2 0.0319252 0.35978 0.338028
2044 1 0.0375587 0.413146 0.338028
2045 2 0.0600282 0.413146 0.338028
2046 2 0.0319252 0.434897 0.338028
2047 1 0.0375587 0.488263 0.338028
2048 2 0.0600282 0.488263 0.338028
2080 1 0.112676 0.338028 0.338028
2081 2 0.135146 0.338028 0.338028
2082 2 0.107043 0.35978 0.338028
2083 1 0.112676 0.413146 0.338028
2084 2 0.135146 0.413146 0.338028
2085 2 0.107043 0.434897 0.338028
2086 1 0.112676 0.488263 0.338028
2087 2 0.135146 0.488263 0.338028
2548 1 0.0375587 0.338028 0.413146
2549 2 0.0600282 0.338028 0.413146
2550 2 0.0319252 0.35978 0.413146
2551 1 0.0375587 0.413146 0.413146
2552 2 0.0600282 0.413146 0.413146
2553 2 0.0319252 0.434897 0.413146
2554 1 0.0375587 0.488263 0.413146
2555 2 0.0600282 0.488263 0.413146
2587 1 0.112676 0.338028 0.413146
2588 2 0.135146 0.338028 0.413146
2589 2 0.107043 0.35978 0.413146
2590 1 0.112676 0.413146 0.413146
2591 2 0.135146 0.413146 0.413146
2592 2 0.107043 0.434897 0.413146
2593 1 0.112676 0.488263 0.413146
2594 2 0.135146 0.488263 0.413146
3055 1 0.0375587 0.338028 0.488263
3056 2 0.0600282 0.338028 0.488263
3057 2 0.0319252 0.35978 0.488263
3058 1 0.0375587 0.413146 0.488263
3059 2 0.0600282 0.413146 0.488263
3060 2 0.0319252 0.434897 0.488263
3061 1 0.0375587 0.488263 0.488263
3062 2 0.0600282 0.488263 0.488263
3094 1 0.112676 0.338028 0.488263
3095 2 0.135146 0.338028 0.488263
3096 2 0.107043 0.35978 0.488263
3097 1 0.112676 0.413146 0.488263
3098 2 0.135146 0.413146 0.488263
3099 2 0.107043 0.434897 0.488263
3100 1 0.112676 0.488263 0.488263
3101 2 0.135146 0.488263 0.488263
2119 1 0.187793 0.338028 0.338028
2120 2 0.210263 0.338028 0.338028
2121 2 0.18216 0.35978 0.338028
2122 1 0.187793 0.413146 0.338028
2123 2 0.210263 0.413146 0.338028
2124 2 0.18216 0.434897 0.338028
2125 1 0.187793 0.488263 0.338028
2126 2 0.210263 0.488263 0.338028
2158 1 0.262911 0.338028 0.338028
2159 2 0.28538 0.338028 0.338028
2160 2 0.257277 0.35978 0.338028
2161 1 0.262911 0.413146 0.338028
2162 2 0.28538 0.413146 0.338028
2163 2 0.257277 0.434897 0.338028
2164 1 0.262911 0.488263 0.338028
2165 2 0.28538 0.488263 0.338028
2199 2 0.332395 0.35978 0.338028
2202 2 0.332395 0.434897 0.338028
2626 1 0.187793 0.338028 0.413146
2627 2 0.210263 0.338028 0.413146
2628 2 0.18216 0.35978 0.413146
2629 1 0.187793 0.413146 0.413146
2630 2 0.210263 0.413146 0.413146
2631 2 0.18216 0.434897 0.413146
2632 1 0.187793 0.488263 0.413146
2633 2 0.210263 0.488263 0.413146
2665 1 0.262911 0.338028 0.413146
2666 2 0.28538 0.338028 0.413146
2667 2 0.257277 0.35978 0.413146
2668 1 0.262911 0.413146 0.413146
2669 2 0.28538 0.413146 0.413146
2670 2 0.257277 0.434897 0.413146
2671 1 0.262911 0.488263 0.413146
2672 2 0.28538 0.488263 0.413146
2706 2 0.332395 0.35978 0.413146
2709 2 0.332395 0.434897 0.413146
3133 1 0.187793 0.338028 0.488263
3134 2 0.210263 0.338028 0.488263
3135 2 0.18216 0.35978 0.488263
3136 1 0.187793 0.413146 0.488263
3137 2 0.210263 0.413146 0.488263
3138 2 0.18216 0.434897 0.488263
3139 1 0.187793 0.488263 0.488263
3140 2 0.210263 0.488263 0.488263
3172 1 0.262911 0.338028 0.488263
3173 2 0.28538 0.338028 0.488263
3174 2 0.257277 0.35978 0.488263
3175 1 0.262911 0.413146 0.488263
3176 2 0.28538 0.413146 0.488263
3177 2 0.257277 0.434897 0.488263
3178 1 0.262911 0.488263 0.488263
3179 2 0.28538 0.488263 0.488263
3213 2 0.332395 0.35978 0.488263
3216 2 0.332395 0.434897 0.488263
2197 1 0.338028 0.338028 0.338028
2198 2 0.360498 0.338028 0.338028