LAMMPS data file via write_data, version 23 Jun 2022, timestep = 10000

2251 atoms
5 atom types
2334 bonds
3 bond types
3417 angles
3 angle types
6000 dihedrals
1 dihedral types
1000 impropers
1 improper types

-10.608944169337558 10.608944169337558 xlo xhi
-12.360582194570355 12.360582194570355 ylo yhi
-28.693478533742308 28.693478533742308 zlo zhi

Masses

1 15.9994
2 1.008
3 12.0107
4 15.9994
5 12.011

Pair Coeffs # lj/cut/tip4p/long

1 0.18481 3.165
2 0 0
3 0.053649 2.8
4 0.156973 3.05
5 0.0663 3.5812

Bond Coeffs # harmonic

1 0 0.9572
2 2566.7 1.16
3 610 1.42

Angle Coeffs # harmonic

1 0 104.52
2 295.4 180
3 80 120

Dihedral Coeffs # opls

1 0 7.25 0 0

Improper Coeffs # harmonic

1 5 180

Atoms # full

685 4 5 0 -4.399439471130998 -5.904637597165135 -24.75826823996709 2 1 0
644 4 5 0 -5.080534071285469 -7.127852865281355 -24.81092818334894 2 1 0
643 4 5 0 -6.509665003582415 -7.182735101546653 -24.6659364250532 2 1 0
681 4 5 0 -4.364052246719085 -8.373105093907323 -24.73158666068534 2 1 0
680 4 5 0 -5.099801308477109 -9.578247074706828 -24.98078109926782 2 2 0
679 4 5 0 -6.499624781990992 -9.657806042564664 -24.803353596163273 2 2 0
646 4 5 0 -7.235250579044058 -5.9220558927595714 -24.78281759641708 2 1 0
642 4 5 0 -7.213725474757115 -8.413294445784102 -24.903562445179954 2 1 0
645 4 5 0 -8.652484781832344 -5.908814756905545 -24.695805513763535 2 1 0
641 4 5 0 -8.648920370445511 -8.425813282724055 -24.764873921524178 2 1 0
717 4 5 0 -4.36240675100284 -10.855719553121258 -24.914917996571685 2 2 0
678 4 5 0 -7.187262956074878 -10.85111929991912 -24.99163788896916 2 2 0
677 4 5 0 -8.642726621518074 -10.835551955129679 -24.904286742619426 2 2 0
604 4 5 0 -9.327620414537082 -7.155914054086174 -24.861554843598647 2 1 0
640 4 5 0 -9.331280038266836 -9.647698008654402 -24.976827913964215 2 2 0
481 3 5 0 -3.580372293382782 -7.671805364088313 -28.359708737066704 2 1 0
403 3 5 0 -9.928769256001422 -6.447751922911967 -28.366149006385058 2 1 0
477 3 5 0 -7.795144246618552 -10.127360809348264 -28.54109141065987 2 2 0
441 3 5 0 -7.844324881263965 -7.664572608205908 -28.341146132593696 2 1 0
517 3 5 0 -3.594838368507057 -10.145900141016678 -28.60338251766589 2 2 0
475 3 5 0 -5.689651843698639 -11.356257289743157 -28.56758432406997 2 2 0
443 3 5 0 -5.670442387384422 -6.409621204937092 -28.26716187318608 2 1 0
479 3 5 0 -5.688686595137407 -8.894120563576077 -28.40232438260087 2 2 0
545 3 5 0 0.7647771143576605 7.17215217692248 -28.36508258097655 2 1 0
401 3 5 0 9.151652855747773 -7.663983872470226 -28.459457883337738 1 1 0
402 3 5 0 10.594864598003475 -7.675542771409359 -28.643634599347926 1 1 0
439 3 5 0 -9.910195163567384 -8.897536372070485 -28.46729120879424 2 2 0
440 3 5 0 -8.504293488869708 -8.899681344825126 -28.629974182462796 2 2 0
435 3 5 0 -9.8818851169094 -11.387309748895964 -28.555257027904734 2 2 0
584 3 5 0 8.511195981200476 5.9424852609127665 -28.652393615480836 2 1 0
582 3 5 0 6.428983850119408 4.733039300644486 -28.66537550589494 2 1 0
480 3 5 0 -4.271657628398986 -8.908951630577539 -28.6594666672043 2 2 0
686 4 5 0 -2.9788426280228815 -5.8740020364863526 -24.98629494444482 2 1 0
682 4 5 0 -2.968606578761168 -8.35014619500794 -25.02344012759464 2 1 0
718 4 5 0 -2.9430318420362505 -10.815662311055405 -25.09960527102107 2 2 0
519 3 5 0 -1.4516927560464639 -8.930308790949168 -28.51862104612166 2 2 0
483 3 5 0 -1.4700208155914591 -6.401641182615069 -28.435399974940307 2 1 0
683 4 5 0 -2.2708156040658505 -7.101530106450247 -24.92308004283198 2 1 0
719 4 5 0 -2.2353838814291094 -9.585295652030366 -24.92995913889746 2 2 0
684 4 5 0 -0.842968180621185 -7.094909083859145 -24.973079334601863 2 1 0
720 4 5 0 -0.8085339018215831 -9.574466763167077 -25.02537935937666 2 2 0
725 4 5 0 -0.13254478948367554 -5.834097461371589 -24.77046243122826 2 1 0
721 4 5 0 -0.0992837868402125 -8.341827329928396 -24.85729999201934 2 1 0
726 4 5 0 1.2842998675050856 -5.87555727674631 -24.921318594985873 2 1 0
723 4 5 0 2.021158878414231 -7.114271963812921 -24.736880218830148 2 1 0
724 4 5 0 3.4560847166258286 -7.132513893697218 -24.80078160792794 2 1 0
722 4 5 0 1.3248175913805125 -8.320366021585963 -25.00881398433573 2 1 0
759 4 5 0 2.0438342010417863 -9.546643562278096 -24.776354632885194 2 2 0
760 4 5 0 3.4530343295677284 -9.56598358486961 -24.824197806523458 2 2 0
757 4 5 0 -0.14817752329869005 -10.839685689661195 -24.832037370418583 2 2 0
758 4 5 0 1.3170308963608583 -10.827913172343889 -24.942927368728885 2 2 0
523 3 5 0 2.7789286135897138 -6.4478878862822455 -28.46865675581203 2 1 0
521 3 5 0 0.6688930414877473 -7.678800101947895 -28.53602981531945 2 1 0
557 3 5 0 0.6616230655571529 -10.135204144788744 -28.51239561899561 2 2 0
559 3 5 0 2.7935634662775244 -8.926892154104795 -28.49768970060043 2 2 0
515 3 5 0 -1.4218262048032462 -11.339015020787883 -28.574099209337906 2 2 0
555 3 5 0 2.821709876609192 -11.36961099729066 -28.405078064175683 2 2 0
531 3 5 0 2.7619028512217603 -1.5176047357659752 -28.353463099446024 2 1 0
554 3 5 0 2.154362619802399 12.103294508073631 -28.53621955828764 2 1 0
431 3 5 0 -9.921648348374495 10.917428235515674 -28.484044889918202 2 1 0
492 3 5 0 0.007004506110732159 -1.4791012233684881 -28.449085983800657 2 1 0
414 3 5 0 10.567857792040714 -0.2061358127870924 -28.508323103724603 1 1 0
550 3 5 0 2.154343168128503 9.657460419025647 -28.440081054820453 2 1 0
595 3 5 0 7.072563892861095 -11.369043541754964 -28.634991548633558 2 2 0
522 3 5 0 2.0953344307087716 -7.6966459850531646 -28.58883962678674 2 1 0
765 4 5 0 4.094887902755817 -5.893266357969262 -24.632517195711376 2 1 0
761 4 5 0 4.16811567776475 -8.338695683235734 -24.58303467529355 2 1 0
797 4 5 0 4.076389142294847 -10.829236602964171 -24.62401799113263 2 2 0
456 3 5 0 -4.257706632605948 0.9792203664579836 -28.538085115294912 2 1 0
766 4 5 0 5.514615838125322 -5.888434481753604 -24.828769239737255 2 1 0
762 4 5 0 5.556500209172078 -8.358320667138766 -24.699488415726695 2 1 0
763 4 5 0 6.2492005706646045 -7.13684943828415 -24.62653746062046 2 1 0
799 4 5 0 6.259799807719907 -9.5968453720949 -24.65318536434305 2 2 0
764 4 5 0 7.679502197501445 -7.157078875281104 -24.81417094674433 2 1 0
605 4 5 0 8.360273139590136 -5.914351012433249 -24.65590302895259 1 1 0
606 4 5 0 9.760794573600753 -5.89006173156338 -24.95417957722073 1 1 0
603 4 5 0 10.452152366126816 -7.162972511262251 -24.80443882633459 1 1 0
601 4 5 0 8.357641510408575 -8.411900758789601 -24.69526896117697 1 1 0
602 4 5 0 9.794933244054327 -8.425580303867433 -24.938468574535715 1 1 0
800 4 5 0 7.663936606709358 -9.63091180202129 -24.941565838689986 2 2 0
639 4 5 0 10.464523698910257 -9.667174898556862 -24.85690119852383 1 2 0
593 3 5 0 4.95238249596691 12.11853015354456 -28.43206269385921 2 1 0
798 4 5 0 5.498094531252381 -10.791038310067025 -24.815318968306986 2 2 0
638 4 5 0 9.72726477007561 -10.8571089983841 -25.025335005691762 1 2 0
507 3 5 0 -1.3857543091269429 8.442531489009191 -28.575577350470862 2 1 0
637 4 5 0 8.343239624049298 -10.875359072840554 -24.880636524031527 1 2 0
561 3 5 0 4.903009411378822 -7.6676558517766304 -28.427138609924725 2 1 0
576 3 5 0 8.448549766134828 1.0270347191081437 -28.640238882567544 2 1 0
1241 86 3 0.7 7.528771333125532 -3.6768673699525882 -14.88477077983988 -6 -1 0
530 3 5 0 2.0796776985896828 -2.7610288157635816 -28.578314918298606 2 1 0
509 3 5 0 -3.482347384916548 9.675250284672764 -28.561562407983224 2 1 0
572 3 5 0 8.493350033153519 -1.46246822660986 -28.570145390609337 2 1 0
486 3 5 0 -2.1880301585898163 -5.1682198002513475 -28.40514412284691 2 1 0
562 3 5 0 6.314663400703905 -7.645754211001414 -28.621676433884666 2 1 0
888 5 5 0 4.827984346449414 -11.98328547683209 -21.261452242767025 2 1 0
544 3 5 0 4.278981101383935 5.916567460245174 -28.53787413450475 2 1 0
497 3 5 0 -3.5563081522700593 2.2111400571849806 -28.472983481847265 2 1 0
442 3 5 0 -6.364610376412384 -7.64946843918067 -28.44652379589995 2 1 0
1248 88 4 -0.35 -10.361614592869302 1.49146572500182 -14.720687606509378 -2 -1 0
410 3 5 0 10.566303429164623 -2.6799234781462657 -28.391696616009284 1 1 0
540 3 5 0 4.217388086753747 3.442366061951869 -28.524247762005977 2 1 0
447 3 5 0 -5.6755939483294675 -3.9426650950255215 -28.203828869668655 2 1 0
493 3 5 0 -3.543088398794902 -0.27294167355413634 -28.265420505488304 2 1 0
411 3 5 0 -9.959418496095088 -1.4378745976353102 -28.25301711588807 2 1 0
648 4 5 0 -5.107646784188935 -4.691030195015997 -24.94556477091442 2 1 0
647 4 5 0 -6.534883138945192 -4.697634703932409 -24.711371814898424 2 1 0
689 4 5 0 -4.409815993215172 -3.474896485800742 -24.813478911752917 2 1 0
652 4 5 0 -5.12622171153519 -2.245721174277896 -24.98498949624386 2 1 0
651 4 5 0 -6.510456419200445 -2.247520961811127 -24.725695184315338 2 1 0
693 4 5 0 -4.449394818126329 -1.0248895004524747 -24.72260281601677 2 1 0
656 4 5 0 -5.158379593409434 0.2696001597584558 -24.898331232136574 2 1 0
655 4 5 0 -6.573482391532695 0.2733231156917868 -24.72732029730198 2 1 0
650 4 5 0 -7.217501432600344 -3.474603738951988 -24.87117199226757 2 1 0
654 4 5 0 -7.247396980144173 -0.9811906500358365 -24.83146842068381 2 1 0
649 4 5 0 -8.630520827536476 -3.469234639117852 -24.74917039195143 2 1 0
653 4 5 0 -8.650154910463575 -0.9751053264668711 -24.69749849822953 2 1 0
608 4 5 0 -9.313539206398453 -4.702237015903449 -24.94972498533392 2 1 0
612 4 5 0 -9.359744232457539 -2.21216454620349 -24.883407232202014 2 1 0
616 4 5 0 -9.343339199994416 0.27539727127676067 -24.913588759688587 2 1 0
449 3 5 0 -7.85960223040307 -2.7501376023449944 -28.161608837261763 2 1 0
407 3 5 0 -9.940020520290311 -3.9696557918034796 -28.2708504581061 2 1 0
489 3 5 0 -3.572916935931419 -2.7124445688057364 -28.181153557686795 2 1 0
485 3 5 0 -3.594083088199716 -5.197810680449157 -28.271228630230524 2 1 0
570 3 5 0 6.326307106407122 -2.7357020797208245 -28.634400864844753 2 1 0
451 3 5 0 -5.700280186563264 -1.4957678281646356 -28.21918603080565 2 1 0
453 3 5 0 -7.845071665830125 -0.2470951755810615 -28.279061208008805 2 1 0
528 3 5 0 4.16957159921533 -4.004504941024664 -28.664761694317246 2 1 0
564 3 5 0 8.458461166238163 -6.423334842796014 -28.642715342680262 2 1 0
532 3 5 0 4.170067187497301 -1.52400260127925 -28.59853722417617 2 1 0
446 3 5 0 -6.384589162760642 -5.189527542266498 -28.413387843867337 2 1 0
1043 20 3 0.7 -10.01291006026622 6.84883968839549 -14.96525595482903 1 -1 0
527 3 5 0 2.757081527277737 -3.985103208123353 -28.465869352257997 2 1 0
690 4 5 0 -2.997180506657867 -3.421742578846257 -25.01811586143873 2 1 0
694 4 5 0 -3.009303419030723 -0.9715360004563284 -24.853761829770388 2 1 0
688 4 5 0 -0.8568835320354187 -4.614962561246901 -25.010404848069093 2 1 0
727 4 5 0 1.9637677254034576 -4.642924219216931 -24.81373728598711 2 1 0
728 4 5 0 3.386199987476851 -4.671461506464301 -24.914691701337 2 1 0
687 4 5 0 -2.279739835713103 -4.620242521094037 -24.907233863554385 2 1 0
691 4 5 0 -2.2929301774435724 -2.1862490968417316 -24.844831692908645 2 1 0
695 4 5 0 -2.3115185830924276 0.27440051475827104 -24.6957162915764 2 1 0
692 4 5 0 -0.8663015164792776 -2.1579445742022876 -24.98534012239172 2 1 0
696 4 5 0 -0.8949169902250255 0.2775223043543404 -24.887778353082254 2 1 0
729 4 5 0 -0.14635386670091272 -3.350548025418505 -24.783567829334007 2 1 0
733 4 5 0 -0.1969073412709967 -0.9518536495112262 -24.644000062440952 2 1 0
730 4 5 0 1.2725006554756724 -3.3906190188553578 -24.901151050886863 2 1 0
731 4 5 0 2.010523922910921 -2.153506929160567 -24.752725950089292 2 1 0
732 4 5 0 3.4077492772168934 -2.1269365873681103 -25.007890118259212 2 1 0
734 4 5 0 1.2450018880875566 -0.9576688321489946 -24.831622817697454 2 1 0
735 4 5 0 1.9841158913622503 0.25315158831380047 -24.681261071936074 2 1 0
736 4 5 0 3.3930868274605133 0.27975089280131565 -24.902095383307024 2 1 0
525 3 5 0 0.661686589942263 -5.184126447481517 -28.406482475831016 2 1 0
491 3 5 0 -1.3933730218550089 -1.4892426381059738 -28.285085923348817 2 1 0
406 3 5 0 -10.591134910652391 -5.188402066166013 -28.572362734136128 2 1 0
924 5 5 0 9.069466542694364 10.212126725133631 -21.257239456732265 2 0 0
487 3 5 0 -1.4698931983606423 -3.9695057339464097 -28.273957315230966 2 1 0
529 3 5 0 0.671792077723033 -2.73548011914858 -28.339103935521333 2 1 0
533 3 5 0 0.7123387246872392 -0.22881399099917765 -28.339762952769654 2 1 0
556 3 5 0 4.247949219365506 -11.372694993347203 -28.612089647116154 2 2 0
484 3 5 0 -0.05511820518583326 -6.409856996142198 -28.574750247205124 2 1 0
465 3 5 0 -7.77439652971386 7.210617615897396 -28.684792812374166 2 1 0
494 3 5 0 -2.1144794772954643 -0.24367521335195272 -28.45158034333869 2 1 0
437 3 5 0 9.207873855832485 -10.153918641705092 -28.486922180831797 1 2 0
578 3 5 0 6.324402125874829 2.2573929441385987 -28.662797326408846 2 1 0
538 3 5 0 2.068502984133197 2.2164031468557166 -28.52982078907264 2 1 0
405 3 5 0 9.151372405275737 -5.1818207391593685 -28.54630041412797 1 1 0
769 4 5 0 4.0969993010707615 -3.389958307534193 -24.80616538077975 2 1 0
773 4 5 0 4.124793151850546 -0.9481922649986111 -24.80061577974394 2 1 0
567 3 5 0 7.012558159205212 -3.989043338050528 -28.57450037098182 2 1 0
965 5 5 0 9.73866888580178 11.493654995180814 -21.300889975080096 2 0 0
767 4 5 0 6.228975041700207 -4.673946980956183 -24.748218102698516 2 1 0
768 4 5 0 7.673907130680041 -4.679456139327314 -24.898075099950457 2 1 0
607 4 5 0 10.460387178939099 -4.687531409889385 -24.820677786403298 1 1 0
774 4 5 0 5.551599106269676 -0.9275374353923468 -24.987823227260545 2 1 0
770 4 5 0 5.536147880415185 -3.418166028036557 -24.900337989116473 2 1 0
771 4 5 0 6.2474368491620895 -2.1914442478621887 -24.76976775620132 2 1 0
775 4 5 0 6.222176069301414 0.2882206270822201 -24.843505295107807 2 1 0
609 4 5 0 8.345626724653897 -3.4510064013691615 -24.792457746741913 1 1 0
610 4 5 0 9.739789707495003 -3.4585537158593005 -25.03282852310786 1 1 0
772 4 5 0 7.642399585979964 -2.1929990976640106 -25.004108202269705 2 1 0
611 4 5 0 10.418058961670631 -2.2001501774123753 -24.79633412098809 1 1 0
776 4 5 0 7.61360410158143 0.27601540004219216 -25.0277796405447 2 1 0
614 4 5 0 9.729110486592617 -0.9520910651809665 -24.9557171747586 1 1 0
613 4 5 0 8.284616111480075 -0.9520163086475635 -24.81639787366506 1 1 0
615 4 5 0 10.417192885307394 0.3153155252072021 -24.836017366705764 1 1 0
413 3 5 0 9.150726862555983 -0.20885278386227293 -28.42317444981229 1 1 0
960 5 5 0 9.043218698237375 7.729690242464267 -21.23432555196475 2 1 0
573 3 5 0 4.922126052268376 -0.26201331556326 -28.488970532189263 2 1 0
409 3 5 0 9.131029826094952 -2.737172112380539 -28.356909782501695 1 1 0
1391 136 3 0.7 6.05899098178411 9.94471847727703 -17.259089815614136 -2 -1 0
558 3 5 0 2.0887587425434027 -10.172888096038273 -28.671384653712447 2 2 0
1256 91 3 0.7 10.347765372252269 9.872268063585361 -18.141633173618597 -3 -1 0
1339 118 4 -0.35 -0.6271919608282414 5.632226745552252 -14.984364484259775 -2 -1 0
1392 136 4 -0.35 5.533925576418162 9.825963060578863 -18.29048485823588 -2 -1 0
921 5 5 0 5.478352176858685 9.04021132358408 -21.46023456995417 2 0 0
1147 54 4 -0.35 4.6162936186576 7.356089821990748 -17.04043700308401 -2 -1 0
926 5 5 0 6.9413745479941795 11.49356797830789 -21.28284671549885 2 0 0
1337 118 3 0.7 -1.7394399212447282 5.572756302823535 -14.636721663997138 -2 -1 0
920 5 5 0 4.817030256867013 7.82189560900076 -21.20485496941212 2 1 0
419 3 5 0 -9.919260772165762 3.5193566460557903 -28.524676037250018 2 1 0
455 3 5 0 -5.693636393219971 1.0249777763753065 -28.354685898441318 2 1 0
459 3 5 0 -5.646306528248741 3.4813426730162607 -28.571746536828158 2 1 0
697 4 5 0 -4.4640731593094545 1.485659672708846 -24.72605953437543 2 1 0
658 4 5 0 -7.2370220757872445 1.5118643040804782 -24.956357945833073 2 1 0
657 4 5 0 -8.673759772039602 1.49923549738444 -24.81175449702424 2 1 0
660 4 5 0 -5.13337284975425 2.7233885323274767 -24.964753221777144 2 1 0
659 4 5 0 -6.559627140216345 2.744833548785966 -24.78656462305346 2 1 0
701 4 5 0 -4.478922376862295 3.955248529325547 -24.89681984875729 2 1 0
664 4 5 0 -5.120587985245242 5.202196232585837 -25.09864375813505 2 1 0
705 4 5 0 -4.413653837299325 6.440066910323261 -25.064730903969412 2 1 0
663 4 5 0 -6.572863120279252 5.1837893063590395 -24.956290901935276 2 1 0
666 4 5 0 -7.252867827928816 6.443044652803837 -25.17496678596324 2 1 0
662 4 5 0 -7.278404980375985 3.9935311257314754 -25.032206475591508 2 1 0
661 4 5 0 -8.705020957124376 4.002362958885856 -25.009675147515217 2 1 0
665 4 5 0 -8.687170702458564 6.421441798034214 -25.136670637775822 2 1 0
620 4 5 0 -9.39025791037927 2.7601328155363407 -25.095696266887522 2 1 0
624 4 5 0 -9.375925242281758 5.217311986166996 -25.270455910244014 2 1 0
1155 57 4 -0.35 -7.245280863197669 -6.929561791982458 -14.61900433339876 -2 -2 0
461 3 5 0 -7.796692823482715 4.749530171405889 -28.556753887202415 2 1 0
415 3 5 0 -9.948307044649276 1.0338622189513178 -28.363655061537727 2 1 0
457 3 5 0 -7.800199288898681 2.2672701684983005 -28.39378444060203 2 1 0
501 3 5 0 -3.516545504265469 4.655301935894127 -28.61425254901468 2 1 0
471 3 5 0 -5.666185797640103 10.873276122038568 -28.481658464258686 2 1 0
423 3 5 0 -9.897522898334596 5.956302450794175 -28.517905566173738 2 1 0
995 5 5 0 -9.366877363352023 5.2671133323994015 -21.533964989453526 3 1 0
454 3 5 0 -6.399226308206722 -0.22873266721116634 -28.466342348100085 2 1 0
1393 136 4 -0.35 6.589107925317617 10.14549610659426 -16.228176249862216 -2 -1 0
884 5 5 0 4.850737280093685 10.254188326170027 -21.211895004819606 2 0 0
1050 22 4 -0.35 -9.38107681978374 -3.8991770036385924 -15.599742980583086 -2 0 0
560 3 5 0 4.2358656067849205 -8.914810555448213 -28.619523765140663 2 2 0
537 3 5 0 0.6944194690043339 2.1999592032123814 -28.379124310841927 2 1 0
698 4 5 0 -3.03380131374291 1.4848860283272327 -24.878508847128337 2 1 0
702 4 5 0 -3.08229542826305 3.931252243754591 -25.113129312839387 2 1 0
706 4 5 0 -2.9906037017726965 6.418921854138328 -25.185616848682816 2 1 0
495 3 5 0 -1.4464447787662427 0.9823937957772058 -28.29176944929654 2 1 0
699 4 5 0 -2.3439351954480245 2.75666778460014 -24.85154388018505 2 1 0
703 4 5 0 -2.3323743556949945 5.167587600145134 -25.020986603045213 2 1 0
737 4 5 0 -0.2149583959818562 1.4717314405527366 -24.706597258976846 2 1 0
738 4 5 0 1.227456324630447 1.4601621717746551 -24.88039383526735 2 1 0
700 4 5 0 -0.8830194995115933 2.723702701322034 -24.960028206105672 2 1 0
704 4 5 0 -0.8979752940400181 5.170578111102162 -25.115852021821173 2 1 0
741 4 5 0 -0.1773727301739293 3.9507831125962523 -24.81846455087936 2 1 0
745 4 5 0 -0.17690333742180706 6.392769871632161 -24.92168870733182 2 1 0
739 4 5 0 1.9106736883929 2.7231454937169772 -24.804399058741314 2 1 0
740 4 5 0 3.293037306469985 2.7314516098568586 -25.10849371866138 2 1 0
742 4 5 0 1.2430121761816142 3.9470874633390256 -25.05444062388265 2 1 0
743 4 5 0 1.9354489949322204 5.147208852329427 -25.01161283460349 2 1 0
744 4 5 0 3.367287783761976 5.19302492932882 -25.226331715231648 2 1 0
746 4 5 0 1.2490543543325858 6.448776337882655 -25.082299899647698 2 1 0
541 3 5 0 0.7045564875486641 4.738296710450991 -28.432429137246288 2 1 0
543 3 5 0 2.851102073966525 5.901199485023045 -28.363059839521227 2 1 0
499 3 5 0 -1.446312584754302 3.4277266831158224 -28.443135780508094 2 1 0
503 3 5 0 -1.4054268246456239 5.963406911544349 -28.514810476679212 2 1 0
535 3 5 0 2.787424314404973 0.9866349629292147 -28.424600610457272 2 1 0
539 3 5 0 2.799318632051903 3.4243560301749154 -28.458304573162778 2 1 0
1290 102 4 -0.35 -5.951714461830209 -1.7785921883145561 -14.976377611836947 -1 1 0
478 3 5 0 -6.394985413877152 -10.134836772637817 -28.623883633708882 2 2 0
922 5 5 0 6.91892622681638 9.04976325852911 -21.290838696043338 2 0 0
524 3 5 0 4.182271053133078 -6.450291001159135 -28.59272226245316 2 1 0
1154 57 3 0.7 -6.746580266189058 -6.040931394602721 -15.1471415979971 -2 -2 0
498 3 5 0 -2.134021119666272 2.1996739923611623 -28.55100969721697 2 1 0
577 3 5 0 4.922172611332146 2.2040821619377216 -28.423368722913807 2 1 0
777 4 5 0 4.08945327409687 1.5318087358266077 -24.910333952804137 2 1 0
781 4 5 0 4.030246695027325 3.9614908622263734 -25.07007833229008 2 1 0
785 4 5 0 4.086397285666465 6.442084137122424 -25.06865645523735 2 1 0
417 3 5 0 9.173013634057314 2.2891116108803615 -28.49130299150889 1 1 0
579 3 5 0 7.065312508662293 3.488252741586554 -28.552445180914294 2 1 0
421 3 5 0 9.192682302353061 4.72886142468456 -28.467432646443537 1 1 0
778 4 5 0 5.537636073419473 1.4983893068743437 -25.177954432896065 2 1 0
617 4 5 0 8.304211016392985 1.507162170965542 -24.876394220743993 1 1 0
618 4 5 0 9.721238992122707 1.554554822965388 -25.02922978538567 1 1 0
782 4 5 0 5.478243303032542 3.9624450094883223 -25.28127328384399 2 1 0
786 4 5 0 5.508077665749079 6.470400000312788 -25.243278944233232 2 1 0
779 4 5 0 6.156703294459155 2.7448037892709216 -25.101634780144295 2 1 0
783 4 5 0 6.188881299861198 5.203132670065189 -25.05528117543102 2 1 0
780 4 5 0 7.595179820015426 2.701377066597843 -25.15492720139485 2 1 0
619 4 5 0 10.387598828397651 2.791916004004206 -24.96671736795094 1 1 0
621 4 5 0 8.281661267493929 3.946569255728097 -25.004046927218216 1 1 0
622 4 5 0 9.707539465211624 3.9993497502470805 -25.216850373530555 1 1 0
784 4 5 0 7.649408469648648 5.2323631693429276 -25.153290532478273 2 1 0
623 4 5 0 10.451501294518811 5.221132545172095 -25.020576523416203 1 1 0
625 4 5 0 8.347274624412332 6.458399733619935 -24.902363404600923 1 1 0
626 4 5 0 9.753612808711138 6.456544137610353 -25.103665819116717 1 1 0
581 3 5 0 4.97133514955917 4.683664024613933 -28.434388698070727 2 1 0
583 3 5 0 7.10794258892342 5.968402393718939 -28.522851206270023 2 1 0
575 3 5 0 7.010691053480085 1.02497298962315 -28.499663611592926 2 1 0
552 3 5 0 4.2571022816975415 10.87512374340392 -28.53654032493419 2 1 0
955 5 5 0 7.635471887265425 5.284296914697175 -21.587231359096823 2 1 0
597 3 5 0 4.953262073200252 -10.145618901211543 -28.540296051034076 2 2 0
958 5 5 0 6.928596561033769 6.530064069306079 -21.35571304233497 2 1 0
526 3 5 0 2.061920512790011 -5.2362406903204795 -28.642832786682614 2 1 0
418 3 5 0 10.588448042801744 2.2662410138272535 -28.687578088264743 1 1 0
467 3 5 0 -5.633885969754767 8.42987077215934 -28.63051792042857 2 1 0
668 4 5 0 -5.148929125649797 7.6585923975578245 -25.20769310591713 2 1 0
667 4 5 0 -6.543316619918702 7.675156318298792 -24.989042686818074 2 1 0
628 4 5 0 -9.353369760304666 7.667152656589512 -25.239083882253613 2 1 0
709 4 5 0 -4.418884774103649 8.907736464540667 -25.057979969253513 2 1 0
672 4 5 0 -5.10689539938753 10.139878403181205 -25.203354547376165 2 1 0
671 4 5 0 -6.5250743036701095 10.158443628191678 -25.046719550808756 2 1 0
713 4 5 0 -4.357790270680542 11.383300120411118 -25.001488046583713 2 1 0
676 4 5 0 -5.023876513573244 -12.104424658310553 -25.104282817945098 2 2 0
675 4 5 0 -6.488177665075279 -12.103293019223203 -25.000552884519163 2 2 0
670 4 5 0 -7.254501447846314 8.938088206885736 -25.158718272214603 2 1 0
674 4 5 0 -7.202221345858587 11.37859595926272 -25.17120564790609 2 1 0
669 4 5 0 -8.682643153179022 8.878538787113664 -25.026780098767684 2 1 0
673 4 5 0 -8.61400629887917 11.393946285211547 -24.899678493714653 2 1 0
632 4 5 0 -9.359102142848489 10.142071508986747 -25.104756191640693 2 1 0
636 4 5 0 -9.31726828404493 -12.05810530441496 -25.0393367123128 2 2 0
452 3 5 0 -4.309933405181095 -1.501480097966325 -28.395833540226985 2 1 0
513 3 5 0 -3.5391893972275867 12.121561299634642 -28.566610359156694 2 1 0
536 3 5 0 4.228289171496595 0.9623852281127385 -28.60905271603746 2 1 0
505 3 5 0 -3.498675259623605 7.126015020175937 -28.658691056246425 2 1 0
534 3 5 0 2.089225868124426 -0.2569478687295391 -28.569424905779318 2 1 0
404 3 5 0 -8.541170718544002 -6.408026419625337 -28.50802716142281 2 1 0
427 3 5 0 -9.868138257948932 8.450226770783763 -28.52390511386019 2 1 0
549 3 5 0 0.718416498638973 9.6428791930873 -28.371158192385465 2 1 0
504 3 5 0 0.025705609421361866 5.990404740256624 -28.63616684603009 2 1 0
548 3 5 0 4.269897462655499 8.392034258611455 -28.58430400180025 2 1 0
490 3 5 0 -2.149114610047396 -2.7121414435700655 -28.37135427585621 2 1 0
445 3 5 0 -7.827662745463371 -5.2026226665469615 -28.274343252554022 2 1 0
511 3 5 0 -1.4073301105671736 10.892692924595956 -28.57827916048883 2 1 0
444 3 5 0 -4.265114816463423 -6.446721093590472 -28.49284988364243 2 1 0
416 3 5 0 -8.546429098860212 1.0227711897944383 -28.47548478292455 2 1 0
1145 54 3 0.7 4.547404379423189 6.281495074858431 -17.42553851779451 -2 -1 0
553 3 5 0 0.7174870995384744 12.099278721042863 -28.46807406005635 2 1 0
408 3 5 0 -8.536297200495076 -3.9725725643408265 -28.386995010628354 2 1 0
547 3 5 0 2.8476558380008226 8.416471988434244 -28.309024841977823 2 1 0
710 4 5 0 -2.943637544227489 8.916688364412268 -25.24608715183159 2 1 0
714 4 5 0 -2.9167751702677553 11.410481299721521 -25.14479847526668 2 1 0
707 4 5 0 -2.2997678435150553 7.625498054863807 -25.00987343478254 2 1 0
747 4 5 0 1.9810458604410721 7.676436968391552 -24.85749220923484 2 1 0
748 4 5 0 3.3866172145119307 7.673489939098519 -25.074568968486293 2 1 0
711 4 5 0 -2.2222358369239603 10.15130093910873 -25.07553479344464 2 1 0
715 4 5 0 -2.252259329895397 -12.078404556729273 -24.997600410698553 2 2 0
708 4 5 0 -0.8774463194731456 7.660815794357617 -25.06117263412634 2 1 0
712 4 5 0 -0.8286995626231342 10.105330260269044 -25.18275156087264 2 1 0
716 4 5 0 -0.8291512612412398 -12.075776487384726 -25.09886997609882 2 2 0
753 4 5 0 -0.14740314447666003 11.3831728835424 -24.99302755872964 2 1 0
749 4 5 0 -0.1506379990444302 8.869328587782142 -24.946863610390274 2 1 0
750 4 5 0 1.302645048762815 8.891977722885063 -25.062460938225037 2 1 0
751 4 5 0 1.972758517736072 10.18709003008497 -24.932284041961346 2 1 0
752 4 5 0 3.363503073329671 10.166067183580513 -24.98307476775691 2 1 0
754 4 5 0 1.314756155891347 11.438822603495066 -25.109025326722954 2 1 0
755 4 5 0 1.9738817525961387 -12.081938539946146 -24.79342261983852 2 2 0
756 4 5 0 3.381479834505161 -12.063898306205047 -24.874570267074464 2 2 0
551 3 5 0 2.843167243766486 10.897035737870462 -28.245676327542867 2 1 0
883 5 5 0 3.3922264250920753 10.288522973634619 -21.320205130116285 2 0 0
1244 87 3 0.7 -6.955605440298405 11.5970290055726 -14.39059808308519 0 -2 0
917 5 5 0 1.2491253722204232 6.525473365683282 -21.510582383985763 2 1 0
879 5 5 0 -0.8644331875148099 7.764599470742471 -21.5830476113516 2 1 0
881 5 5 0 1.2734542141441416 9.014014233603339 -21.463136542213828 2 0 0
843 5 5 0 -0.8363025597060127 10.243350923769182 -21.512450107269036 2 0 0
885 5 5 0 1.2339319922579546 11.519726709867593 -21.40735367204021 2 0 0
591 3 5 0 7.104083010063804 10.912666826033423 -28.588004091758933 2 1 0
600 3 5 0 8.468412439611695 -8.893053554339257 -28.628304596590127 2 2 0
563 3 5 0 7.00518320646691 -6.433643982020038 -28.490018386742797 2 1 0
473 3 5 0 -7.763795998969632 12.121388142924362 -28.602539297616076 2 1 0
469 3 5 0 -7.798389926131158 9.68011149876111 -28.58908932360086 2 1 0
488 3 5 0 -0.06004236688978011 -3.9567291238523965 -28.496679398287704 2 1 0
599 3 5 0 7.037471754097441 -8.885967804743142 -28.46283850520403 2 2 0
412 3 5 0 -8.530831225646063 -1.4866805972244206 -28.383107675180224 2 1 0
569 3 5 0 4.904563305613414 -2.773381686979894 -28.454759072969434 2 1 0
959 5 5 0 7.634410207121667 7.764211041539799 -21.393901942884817 2 1 0
957 5 5 0 5.495195667912416 6.593634532015266 -21.47024444156291 2 1 0
587 3 5 0 7.077989194340263 8.412975984658656 -28.483993410901874 2 1 0
789 4 5 0 4.121356578451189 8.90864105251449 -24.820983958241708 2 1 0
793 4 5 0 4.056855620202161 11.405691377347456 -24.747469437309228 2 1 0
585 3 5 0 4.983675524536565 7.1572920545889485 -28.39796153062309 2 1 0
520 3 5 0 -0.023597242503969336 -8.912213131018135 -28.632803847031145 2 2 0
425 3 5 0 9.213915664051152 7.2059970608936235 -28.503275003044926 1 1 0
589 3 5 0 4.9800932159027615 9.659720376531507 -28.521707785443176 2 1 0
429 3 5 0 9.219673221388728 9.671038304489665 -28.543258502359457 1 1 0
787 4 5 0 6.2133580338522565 7.676806004005431 -25.027929217300677 2 1 0
788 4 5 0 7.624514672630856 7.690373912736897 -25.16540831166159 2 1 0
627 4 5 0 10.47722488883189 7.659540847165619 -24.930687745043798 1 1 0
790 4 5 0 5.500437158708541 8.921848335620624 -25.01300994347731 2 1 0
794 4 5 0 5.470279366504954 11.40123266932757 -24.94835180880816 2 1 0
791 4 5 0 6.163522854944807 10.160516601637303 -24.834461020059297 2 1 0
795 4 5 0 6.180855160984298 -12.064111922106827 -24.7308953733723 2 2 0
629 4 5 0 8.300064419262537 8.9712901760464 -24.96821389348463 1 1 0
630 4 5 0 9.735098334990063 8.91511068546965 -25.113056641810573 1 1 0
792 4 5 0 7.5805352838269275 10.17289309148376 -25.118701717795975 2 1 0
631 4 5 0 10.423882298767323 10.182195527990356 -24.943221478367906 1 1 0
796 4 5 0 7.582402694139154 -12.05586349469708 -24.97908675554207 2 2 0
633 4 5 0 8.268720603983134 11.422824467126775 -24.858574812813586 1 1 0
634 4 5 0 9.723920511425327 11.420895932753387 -25.008026354473387 1 1 0
635 4 5 0 10.466844380699072 -12.078200317968586 -24.918857995591996 1 2 0
923 5 5 0 7.651874483795911 10.266259279899867 -21.471021901982105 2 0 0
1011 9 4 -0.35 1.479347424557458 9.463717983448882 -15.84276232355266 -2 -2 0
925 5 5 0 5.545787218295291 11.508152052767612 -21.35882268402512 2 0 0
997 5 5 0 9.7296992062357 6.5213744135962255 -21.437132537774716 2 1 0
1024 13 4 -0.35 0.8381411625347565 -1.5049575970684632 -14.557219237312864 -2 -1 0
1258 91 4 -0.35 9.327032558553372 9.297186899106368 -18.225339706276376 -3 -1 0
807 5 5 0 -5.0844114178803315 -11.995085486709716 -21.589539769234477 2 1 0
508 3 5 0 0.08485283864654458 8.413667238932614 -28.647073809004766 2 1 0
1245 87 4 -0.35 -7.133066789203765 12.358789759024647 -15.225106680254983 0 -2 0
971 5 5 0 -9.356872683249913 -9.508306002669984 -21.383923856134587 3 1 0
975 5 5 0 -9.352465308050846 -7.044720509018472 -21.440864169736777 3 1 0
809 5 5 0 -7.2603271218185474 -10.747844794760084 -21.40462509523576 2 1 0