LAMMPS data file via write_data, version 23 Jun 2022, timestep = 200000

2251 atoms
5 atom types
2334 bonds
3 bond types
3417 angles
3 angle types
6000 dihedrals
1 dihedral types
1000 impropers
1 improper types

-10.608944169337558 10.608944169337558 xlo xhi
-12.360582194570355 12.360582194570355 ylo yhi
-28.693478533742308 28.693478533742308 zlo zhi

Masses

1 15.9994
2 1.008
3 12.0107
4 15.9994
5 12.011

Pair Coeffs # lj/cut/tip4p/long

1 0.18481 3.165
2 0 0
3 0.053649 2.8
4 0.156973 3.05
5 0.0663 3.5812

Bond Coeffs # harmonic

1 0 0.9572
2 2566.7 1.16
3 610 1.42

Angle Coeffs # harmonic

1 0 104.52
2 295.4 180
3 80 120

Dihedral Coeffs # opls

1 0 7.25 0 0

Improper Coeffs # harmonic

1 5 180

Atoms # full

688 4 5 0 -3.8231472650656038 -6.869455564563176 -24.984570590908774 2 1 0
687 4 5 0 -5.266621440838824 -6.863918666450276 -24.767673271348823 2 1 0
648 4 5 0 -8.089941283675984 -6.877862366743581 -24.92082052817284 2 1 0
686 4 5 0 -5.989550495110385 -8.065969004913685 -24.94931041816995 2 1 0
685 4 5 0 -7.386336049242363 -8.090749294402686 -24.720841393815927 2 1 0
684 4 5 0 -3.8670935192170077 -9.324000222705108 -24.919906183188097 2 1 0
683 4 5 0 -5.283628214550593 -9.330383506659476 -24.775301737232436 2 1 0
644 4 5 0 -8.082984436204644 -9.314973884233332 -24.850598840743224 2 1 0
647 4 5 0 -9.532473202172117 -6.857800660079143 -24.73373275834298 2 1 0
643 4 5 0 -9.509132060503283 -9.283561728830367 -24.693912231949223 2 1 0
682 4 5 0 -6.0092501063088655 -10.582403081850284 -24.949555187818657 2 1 0
681 4 5 0 -7.406857610282745 -10.59073721299772 -24.66985833101633 2 1 0
720 4 5 0 -3.818871188263178 -11.801546952539159 -24.917510919660096 2 2 0
719 4 5 0 -5.273141707633289 -11.783521906101889 -24.84545681578331 2 2 0
680 4 5 0 -8.094125497832145 -11.792098477803325 -24.96835011611085 2 2 0
679 4 5 0 -9.491748865314516 -11.732403370014271 -24.755457862947367 2 2 0
646 4 5 0 -10.203970134681148 -8.083880265141214 -24.931752328623652 2 1 0
642 4 5 0 -10.214631348624716 -10.527778165631693 -24.823009249892298 2 1 0
543 3 5 0 -0.16745272700799063 4.458805117270121 -28.555675372101476 2 1 0
494 3 5 0 -5.174510196917851 -1.658187980360653 -28.575146016293644 2 1 0
517 3 5 0 -6.62653093450178 -11.555500435293217 -28.537389691616337 2 2 0
527 3 5 0 -0.2700655095584441 -5.4498055705610735 -28.55626437947534 2 1 0
547 3 5 0 -0.1821698863913941 6.973711599691857 -28.648118970184825 2 1 0
725 4 5 0 -3.155822387774463 -8.072855427717403 -24.793156387224688 2 1 0
721 4 5 0 -3.122101926946688 -10.57238516820045 -24.72458119751417 2 1 0
727 4 5 0 -1.0462220720507531 -6.858342808494033 -24.827090082418124 2 1 0
728 4 5 0 0.4133329279131335 -6.82062526812147 -24.986677522892652 2 1 0
767 4 5 0 3.1935723394284565 -6.827857853750106 -25.004559096331057 2 1 0
726 4 5 0 -1.7535041974944594 -8.069396674229449 -24.97155415107341 2 1 0
766 4 5 0 2.5339607316041004 -8.081688667480126 -25.08715995969628 2 1 0
765 4 5 0 1.0998820397932594 -8.06871601148411 -24.862823121390065 2 1 0
723 4 5 0 -1.0328605344192727 -9.30213996569513 -24.7847262346482 2 1 0
724 4 5 0 0.3981699826092342 -9.311601109857875 -25.044487226808226 2 1 0
763 4 5 0 3.232285039258647 -9.347267596443766 -24.958617712953437 2 1 0
722 4 5 0 -1.7192596294773743 -10.573711352487694 -24.96052806520181 2 1 0
761 4 5 0 1.1150992815641985 -10.55243945371912 -24.876698261882865 2 1 0
762 4 5 0 2.516197756175913 -10.581838781244185 -25.09978108431642 2 1 0
759 4 5 0 -0.9786485941377574 -11.786043795766036 -24.7948881545299 2 2 0
799 4 5 0 3.238633802000269 -11.80590997522351 -24.94703431595201 2 2 0
760 4 5 0 0.43859464524245695 -11.777677278056002 -25.04035873846425 2 2 0
941 5 5 0 2.1144896355964526 -6.5663849175015985 -21.44291200171589 2 1 0
899 5 5 0 0.03234037210198615 -7.797933483252435 -21.525901145482834 2 1 0
937 5 5 0 2.157558734891369 -9.08243104252136 -21.38551310661933 2 1 0
895 5 5 0 0.015793215466874955 -10.333058698349081 -21.54060278319498 2 1 0
901 5 5 0 -2.108089514004524 -6.599341369566901 -21.426630532077493 2 1 0
933 5 5 0 2.103676971191483 -11.589347009178976 -21.330427771591385 2 1 0
934 5 5 0 3.538405845168276 -11.599394857487829 -21.172404466555285 2 1 0
441 3 5 0 10.362119624365462 -9.102797020333417 -28.636885349514166 1 1 0
540 3 5 0 1.202122330666759 2.020240700344557 -28.56167725776692 2 1 0
1386 134 4 -0.35 0.3195702503003943 10.507435058076673 -18.218272253320137 -1 -1 0
597 3 5 0 1.887028304052139 -11.58854276915281 -28.57408962035326 2 2 0
1391 136 3 0.7 8.136934303608793 11.563794914352059 -16.48796166869111 -2 -1 0
534 3 5 0 -0.9054090870489642 -1.7049827591011582 -28.64788172217946 2 1 0
559 3 5 0 -0.22018294256053217 -10.304071515866157 -28.408352986638658 2 2 0
496 3 5 0 -3.0169618408099836 -0.4686910243889333 -28.55687185612485 2 1 0
1392 136 4 -0.35 7.600880695224834 10.976272494422282 -15.649228879685515 -2 -1 0
1061 26 3 0.7 4.108773531140784 8.881243626762963 -17.5135118554495 -3 -1 0
1062 26 4 -0.35 4.462954374878615 9.933767431158294 -17.75389638960715 -3 -1 0
768 4 5 0 4.619312426130605 -6.881799963211397 -25.199023543842994 2 1 0
764 4 5 0 4.647587744535127 -9.35320103649716 -25.045540788092577 2 1 0
607 4 5 0 7.477172335063241 -6.879603967975512 -24.867119968650616 1 1 0
608 4 5 0 8.894908579983337 -6.865404006660054 -25.049597866315853 1 1 0
605 4 5 0 5.319529997498165 -8.120087921150969 -25.004406822632124 1 1 0
606 4 5 0 6.769690853305345 -8.092542977441568 -25.097681872337677 1 1 0
645 4 5 0 9.586037185284098 -8.066426567568298 -24.733699988978003 1 1 0
603 4 5 0 7.461561550236549 -9.312387065812205 -24.790899487831126 1 1 0
604 4 5 0 8.910506362144243 -9.318298688545305 -24.894666237911153 1 1 0
601 4 5 0 5.387345422572977 -10.530638912856812 -24.814658948853523 1 1 0
602 4 5 0 6.801161569784515 -10.541963528818842 -25.011990036277005 1 1 0
641 4 5 0 9.585652148438367 -10.54365846316214 -24.644791633697903 1 1 0
800 4 5 0 4.681001829322893 -11.797722039914671 -24.989654241944326 2 2 0
640 4 5 0 8.910824133584939 -11.784228496626536 -24.86090126703122 1 2 0
639 4 5 0 7.506338940227238 -11.758790775566013 -24.777505108920057 1 2 0
975 5 5 0 8.485369916600884 -10.316105116054013 -21.304693544174647 2 1 0
979 5 5 0 8.48116962901829 -7.812551257996398 -21.237414933194035 2 1 0
939 5 5 0 4.277505411402499 -7.838364410783363 -21.21024276115834 2 1 0
977 5 5 0 6.393590759966493 -9.04870752761742 -21.236146105492914 2 1 0
817 5 5 0 10.606715384874676 -9.05761291445504 -21.33671332235756 1 1 0
935 5 5 0 4.258091689276361 -10.324163650400521 -21.193916188731965 2 1 0
981 5 5 0 6.4131186446104635 -6.584137176737023 -21.289915080700244 2 1 0
978 5 5 0 7.8263223634887105 -9.072385422648617 -21.081390529084974 2 1 0
976 5 5 0 9.920543303130568 -10.31204881749168 -21.210808622928297 2 1 0
813 5 5 0 -10.590540820581861 -11.536433376136848 -21.392153157848437 2 1 0
973 5 5 0 6.420117415093653 -11.517494972457975 -21.221037747809778 2 1 0
437 3 5 0 6.153250275106547 -11.575061195763665 -28.536825633741955 1 2 0
599 3 5 0 3.9817637554371252 -10.311467170862823 -28.6284792092931 2 2 0
490 3 5 0 -5.1498045810002155 -4.174604867164501 -28.665231241980806 2 1 0
583 3 5 0 4.047367398270511 4.493296574706051 -28.42962336823877 2 1 0
469 3 5 0 10.36438799431 8.19642259886496 -28.503053192980506 1 1 0
928 5 5 0 5.669004625285666 9.482841074014193 -21.30222401587886 2 0 0
1063 26 4 -0.35 3.775470503914933 7.778155892965309 -17.24536735885627 -3 -1 0
1019 12 3 0.7 9.601088373557715 8.592642542366427 -17.164312427661034 -2 -1 0
580 3 5 0 5.465154971408495 2.0210989301618962 -28.65330948103352 2 1 0
439 3 5 0 8.2185693585803 -10.346340615231874 -28.60405342295759 1 2 0
561 3 5 0 1.879119820476209 -9.103571056836396 -28.63780089436157 2 1 0
589 3 5 0 1.9668694426750353 8.178603054082 -28.551762586732 2 1 0
863 5 5 0 -4.2033231797476445 -5.355381451656119 -21.284148548552732 2 1 0
823 5 5 0 -8.491782909959941 -5.347914421720232 -21.376938283334717 2 1 0
690 4 5 0 -5.9485043637183175 -5.638741534419043 -24.81561114973343 2 1 0
689 4 5 0 -7.36836096843789 -5.611496488570781 -24.799120480351394 2 1 0
692 4 5 0 -3.852585766414429 -4.392049254275645 -24.943678649638226 2 1 0
691 4 5 0 -5.277192996893159 -4.359302053195647 -24.734786894457795 2 1 0
652 4 5 0 -8.108015493393228 -4.40729759860003 -24.9765695752367 2 1 0
651 4 5 0 -9.545338465777489 -4.348956378369801 -24.81032421905965 2 1 0
693 4 5 0 -7.425813684223786 -3.1291286793115063 -24.783617182819462 2 1 0
694 4 5 0 -6.008599193136409 -3.1586580463757876 -24.974497010049674 2 1 0
696 4 5 0 -3.8858723785778064 -1.8803016668858739 -25.05841293333072 2 1 0
695 4 5 0 -5.301776704619674 -1.8981638340421796 -24.921010481234497 2 1 0
656 4 5 0 -8.146934426132685 -1.8962972937195985 -24.98081310677942 2 1 0
698 4 5 0 -6.015793242789452 -0.6592256754297701 -25.143335378501313 2 1 0
697 4 5 0 -7.435070416928123 -0.6218115727213451 -24.982766250897356 2 1 0
655 4 5 0 -9.574308166105192 -1.873550976360038 -24.864175668734557 2 1 0
871 5 5 0 -4.200002038280909 -0.4299588683698481 -21.28259561355409 2 1 0
831 5 5 0 -8.481921690213847 -0.44526180811475946 -21.334891434195224 2 1 0
865 5 5 0 -6.344129139248291 -4.136003208394495 -21.46078541333698 2 1 0
867 5 5 0 -4.203621703889787 -2.8887242964709134 -21.346660306764452 2 1 0
869 5 5 0 -6.353886727410673 -1.6677356547611684 -21.327658434514575 2 1 0
827 5 5 0 -8.483952130503189 -2.9040781067148576 -21.413902525207313 2 1 0
832 5 5 0 -7.078834630859259 -0.43820284976026613 -21.079482451608214 2 1 0
828 5 5 0 -7.079197940128944 -2.9016748642106833 -21.227114368086315 2 1 0
830 5 5 0 -9.240343886853047 -1.6862434321182835 -21.230588383674707 2 1 0
658 4 5 0 -10.243055197621207 -0.6292971643565419 -25.146648752529053 2 1 0
650 4 5 0 -10.195366740755611 -5.595222462690115 -24.879546419456386 2 1 0
654 4 5 0 -10.241348822503795 -3.1380263431777866 -25.017373866495753 2 1 0
502 3 5 0 -5.155286839352929 3.2276870931555397 -28.62990214036755 2 1 0
410 3 5 0 7.45620502351699 -4.144667305361745 -28.557411584692044 1 1 0
471 3 5 0 -8.697519530188973 9.418651080581633 -28.485339835465933 2 1 0
453 3 5 0 10.34569959097077 -1.7067891002105071 -28.521301387059346 1 1 0
729 4 5 0 -3.1318735074623287 -5.608047868801687 -24.871578019972098 2 1 0
737 4 5 0 -3.1893094781283793 -0.6393277264903006 -24.896688008890084 2 1 0
903 5 5 0 0.051351267211797946 -5.369065136964331 -21.60048310239641 2 1 0
733 4 5 0 -3.1770909743700457 -3.1020376471964646 -24.875942497665836 2 1 0
730 4 5 0 -1.7382147349291532 -5.6100477190326306 -25.03288309535699 2 1 0
769 4 5 0 1.1076453740230168 -5.557829032328526 -24.8661153261975 2 1 0
770 4 5 0 2.504219878228035 -5.598890698024084 -25.16317497204367 2 1 0
731 4 5 0 -1.0527898793606827 -4.372342479383547 -24.911876877964147 2 1 0
732 4 5 0 0.35215391793386 -4.38240449121227 -25.1287335898477 2 1 0
771 4 5 0 3.2119723721546993 -4.366325607755867 -25.024476695956054 2 1 0
734 4 5 0 -1.76992322586562 -3.115616901250828 -25.064064614911395 2 1 0
773 4 5 0 1.0363088364929158 -3.119102549516727 -24.97401476004465 2 1 0
774 4 5 0 2.4695869083090187 -3.114741396174459 -25.11050595326751 2 1 0
735 4 5 0 -1.062933296409554 -1.8626988633528452 -24.89951424186968 2 1 0
736 4 5 0 0.34218183461736196 -1.8926834326983109 -25.111636504802163 2 1 0
775 4 5 0 3.225957240800435 -1.88110366559728 -24.81587663947858 2 1 0
738 4 5 0 -1.7509644883565656 -0.6242667208191257 -24.9935656552137 2 1 0
777 4 5 0 1.0006856550299545 -0.6467277153851754 -24.89704427149519 2 1 0
778 4 5 0 2.449295802916456 -0.6223325087159974 -24.98997572211116 2 1 0
949 5 5 0 2.1410928653242625 -1.6307408144205233 -21.521319972230568 2 1 0
945 5 5 0 2.180357336427571 -4.124339001855194 -21.46702756899407 2 1 0
909 5 5 0 -2.0586051458084906 -1.6770340488364077 -21.409380946903745 2 1 0
911 5 5 0 0.04574037757341287 -0.3920811261884687 -21.493112645262155 2 1 0
905 5 5 0 -2.011867849946894 -4.1126097549120875 -21.354389681594512 2 1 0
907 5 5 0 0.058113736223530665 -2.8971389504492073 -21.481655194193046 2 1 0
950 5 5 0 3.564884047202506 -1.669288715957709 -21.365927022443287 2 1 0
912 5 5 0 1.4704276471840139 -0.3922490559161975 -21.278697856287316 2 1 0
972 5 5 0 9.945132287208594 11.953449288683391 -21.216411728826706 2 0 0
932 5 5 0 5.7163161071345385 11.966277293996122 -21.11579931356305 2 0 0
425 3 5 0 6.146990062603582 5.725662303501242 -28.406326453264104 1 1 0
427 3 5 0 8.252840247102636 6.966349171163056 -28.539163037124332 1 1 0
943 5 5 0 4.257158470014158 -5.3814236696475675 -21.309616743347334 2 1 0
983 5 5 0 8.512191760973945 -5.340260830900979 -21.370620875212744 2 1 0
609 4 5 0 5.355257712888585 -5.670719894088393 -24.94130245073991 1 1 0
610 4 5 0 6.7833813698493834 -5.655765403884932 -25.035905361117745 1 1 0
649 4 5 0 9.58596367621313 -5.6115273278876145 -24.80391056848886 1 1 0
772 4 5 0 4.643274300295936 -4.384164905584555 -25.055386722590068 2 1 0
611 4 5 0 7.448841172163629 -4.398381547383689 -24.936553825520733 1 1 0
612 4 5 0 8.88438475579321 -4.4115938905333 -24.99776873432642 1 1 0
776 4 5 0 4.616121192385615 -1.870762250543251 -25.030921184583484 2 1 0
614 4 5 0 6.743512865976232 -3.1716670230335833 -25.067572101675243 1 1 0
613 4 5 0 5.298561907395692 -3.1360094902217472 -24.817111642746017 1 1 0
653 4 5 0 9.565518658475039 -3.130081584538445 -24.81090527225955 1 1 0
616 4 5 0 8.859169326961485 -1.9245744921095653 -25.152750756859497 1 1 0
615 4 5 0 7.399031624785302 -1.9095026066594638 -24.992713107514454 1 1 0
617 4 5 0 5.301589775066965 -0.653788178024401 -24.967929084085384 1 1 0
618 4 5 0 6.726708748211731 -0.656483102493647 -25.280377942898085 1 1 0
657 4 5 0 9.535467571405668 -0.6312926314432712 -25.047656240542658 1 1 0
985 5 5 0 6.3725983257526835 -4.1289064664299815 -21.35044121093465 2 1 0
987 5 5 0 8.472993048036649 -2.879132544360658 -21.449259126687664 2 1 0
991 5 5 0 8.501488434745973 -0.3628585989478861 -21.48279878587628 2 1 0
825 5 5 0 10.588903851358044 -4.094359711326405 -21.497380835036928 1 1 0
951 5 5 0 4.249382333814449 -0.46687980167376963 -21.529883149381572 2 1 0
829 5 5 0 10.564556255491524 -1.6221999028395384 -21.408098303717907 1 1 0
947 5 5 0 4.267228196612519 -2.879523503377273 -21.50839546981316 2 1 0
989 5 5 0 6.403433252312599 -1.6565982518386182 -21.498647953435146 2 1 0
948 5 5 0 5.696596921699861 -2.852232667107904 -21.206345419790814 2 1 0
952 5 5 0 5.665568028414455 -0.42072768663078364 -21.39218838764523 2 1 0
988 5 5 0 9.860345702194017 -2.878675586073749 -21.225778604072286 2 1 0
992 5 5 0 9.885623580654325 -0.3880586158060275 -21.256605107200183 2 1 0
986 5 5 0 7.808901683701759 -4.104282928377076 -21.192818926077283 2 1 0
970 5 5 0 7.825057622049698 10.707621346241947 -21.305199551831087 2 0 0
1020 12 4 -0.35 10.294567057396467 9.355728756329317 -17.668717219035006 -2 -1 0
1385 134 3 0.7 -0.17095053288093354 11.391575500004635 -17.654966733941805 -1 -1 0
417 3 5 0 6.104836036382675 0.7542068630243328 -28.5055511683024 1 1 0
593 3 5 0 1.864097796658342 10.693047980104417 -28.45962378994748 2 1 0
481 3 5 0 -6.609530459669043 -9.090362674402186 -28.486780950886022 2 1 0
578 3 5 0 3.319067029910336 0.7585845124663049 -28.642760237751705 2 1 0
892 5 5 0 1.4273846948657152 11.872945804204026 -21.162074963811715 2 0 0
873 5 5 0 -6.365802019153804 0.783987616230517 -21.23604236347977 2 1 0
834 5 5 0 -9.1985190576876 0.8026020946305898 -21.222826831760408 2 1 0
700 4 5 0 -3.8538038744074763 0.5861960494927878 -25.166984111196847 2 1 0
699 4 5 0 -5.296042190355473 0.5517220870549195 -24.957600469404596 2 1 0
660 4 5 0 -8.129423779943256 0.5689788867939569 -25.14709199564134 2 1 0
659 4 5 0 -9.536398704994939 0.6004178200415247 -24.974283142277272 2 1 0
702 4 5 0 -5.955684039249727 1.8109154693755034 -25.10525859682391 2 1 0
701 4 5 0 -7.405192532615379 1.8006648868473683 -24.988974925146834 2 1 0
664 4 5 0 -8.078353233262664 3.0371814047702657 -25.196358828077084 2 1 0
704 4 5 0 -3.8558233895830725 3.0577852248596074 -25.01397006114897 2 1 0
703 4 5 0 -5.281714146421103 3.078459732035979 -24.842569290871996 2 1 0
706 4 5 0 -5.983080049162179 4.328804100610434 -25.04222760244668 2 1 0
705 4 5 0 -7.421727577484798 4.288181156657238 -24.92481083877991 2 1 0
708 4 5 0 -3.8362931865754595 5.512397163116514 -25.113764927223606 2 1 0
707 4 5 0 -5.239539531238281 5.536575287593589 -24.866936964464458 2 1 0
668 4 5 0 -8.132885288430684 5.536947751700467 -25.017380471334604 2 1 0
663 4 5 0 -9.505489206292445 3.073081902851852 -25.05695298289765 2 1 0
667 4 5 0 -9.552488154778612 5.549189332058198 -24.860229155477608 2 1 0
877 5 5 0 -6.3647448060478835 3.2758838398837664 -21.385681396017468 2 1 0
841 5 5 0 -6.307154506184396 5.710225383779026 -21.47894681968015 2 0 0
835 5 5 0 -8.469605218039437 2.0208155664339227 -21.47682375862224 2 1 0
839 5 5 0 -8.458221798047422 4.476657627208077 -21.5030007276196 2 1 0
838 5 5 0 -9.190591822264965 3.2496272496416783 -21.3686677211205 2 1 0
666 4 5 0 -10.189665402073361 4.315810091636603 -25.14466259167237 2 1 0
662 4 5 0 -10.169250058300378 1.8293197458481316 -25.16434865774351 2 1 0
479 3 5 0 -8.724926931358558 -10.340064054947474 -28.615957465801078 2 2 0
586 3 5 0 3.357794606162255 5.701066046321895 -28.574301606799654 2 1 0
516 3 5 0 -3.0429559487648445 11.96119993592497 -28.58798689654203 2 1 0
1269 95 4 -0.35 -4.056913560525622 -11.252183836348879 -15.461502491949378 -1 -1 0
741 4 5 0 -3.1715436725829944 1.8302132115674148 -24.971347293025826 2 1 0
913 5 5 0 -2.1418124666328833 0.807145500586401 -21.34765722592349 2 1 0
953 5 5 0 2.1720997808175273 0.8475230347027232 -21.564653809408085 2 1 0
745 4 5 0 -3.1489115379731425 4.2791018964351935 -24.95547057662124 2 1 0
920 5 5 0 1.4578218465997708 4.483309953185273 -21.402791745484777 2 1 0
739 4 5 0 -1.0888827713345623 0.6285450660778391 -24.877145344798638 2 1 0
779 4 5 0 3.1277999372681453 0.5883413302252425 -24.853815757549068 2 1 0
740 4 5 0 0.327990900329473 0.62472691508321 -25.014482108900456 2 1 0
742 4 5 0 -1.7757458635236603 1.8297808151242414 -25.102356587700967 2 1 0
781 4 5 0 1.061826715252879 1.8507049491617362 -24.868496915981414 2 1 0
782 4 5 0 2.454390376585266 1.8162847963055828 -25.09475556882206 2 1 0
743 4 5 0 -1.0518572345531023 3.049609277371337 -24.881728607883975 2 1 0
744 4 5 0 0.3596687681292483 3.0649152439093967 -24.972124262864398 2 1 0
783 4 5 0 3.1969609688280567 3.045579908026358 -24.989001126078346 2 1 0
746 4 5 0 -1.7262683976962432 4.279479909522074 -25.06062535867746 2 1 0
785 4 5 0 1.0884561489000077 4.289058298516018 -24.779502249611397 2 1 0
786 4 5 0 2.490139336104148 4.290435347451481 -25.01561081770063 2 1 0
747 4 5 0 -1.0211050309278917 5.535155756268061 -24.98889561959089 2 1 0
748 4 5 0 0.41520492378326423 5.529683701257685 -24.990846860720158 2 1 0
787 4 5 0 3.1900359393632964 5.547222731004059 -24.952883415317928 2 1 0
881 5 5 0 -2.065990860326419 5.744181601394416 -21.48561825121602 2 0 0
921 5 5 0 2.162029960066679 5.689016224606377 -21.536123565705747 2 0 0
919 5 5 0 0.08989304454698122 4.499582255254829 -21.55531426706664 2 1 0
882 5 5 0 -0.627781550047736 5.709791229185367 -21.345764364296976 2 0 0
958 5 5 0 3.5706770864563175 3.2590292618477843 -21.455897634759403 2 1 0
915 5 5 0 0.01854714117330758 2.059228901774537 -21.40922917747121 2 1 0
957 5 5 0 2.147276021326501 3.2906304721716726 -21.59026850194367 2 1 0
916 5 5 0 1.4461242844146387 2.042460956515473 -21.388056098287954 2 1 0
954 5 5 0 3.581763076403714 0.815959846990399 -21.428189740069513 2 1 0
888 5 5 0 1.4227617420237753 9.437352021915178 -21.167373359990844 2 0 0
922 5 5 0 3.5687427926786643 5.712831726769224 -21.41159748398719 2 0 0
421 3 5 0 6.185778849599927 3.259681997018241 -28.481051766977778 1 1 0
1270 95 4 -0.35 -4.184002272273319 -11.901512075511723 -17.6854721572964 -1 -1 0
542 3 5 0 -0.8910237769185656 3.2325346142874274 -28.62364848128448 2 1 0
451 3 5 0 -8.720925796464597 -2.8989315026445652 -28.43011529307626 2 1 0
465 3 5 0 10.399232568356833 5.70291357066565 -28.55670482759149 1 1 0
833 5 5 0 -10.600095673521079 0.820422213674691 -21.502391722952254 2 1 0
993 5 5 0 6.366941493497201 0.8370030427222552 -21.564182545991592 2 1 0
837 5 5 0 -10.585295945308333 3.2808504802639415 -21.53425624709552 2 1 0
801 5 5 0 -10.597764742681367 5.741458849137935 -21.58000542098987 2 0 0
1000 5 5 0 9.938466533392482 4.499632101910223 -21.41255299687303 2 1 0
955 5 5 0 4.254648245014026 1.9985529252406309 -21.619149327734295 2 1 0
995 5 5 0 8.518189428935301 2.083345961141026 -21.506025946748117 2 1 0
999 5 5 0 8.51019933768541 4.546028794176667 -21.581239477330595 2 1 0
960 5 5 0 5.67935894819767 4.491230689192381 -21.402869392060136 2 1 0
998 5 5 0 7.82143057344954 3.3242581550711137 -21.34794167342934 2 1 0
959 5 5 0 4.286390580594423 4.476458338618752 -21.531767226633445 2 1 0
997 5 5 0 6.388809663136669 3.268754583419618 -21.494107934968827 2 1 0
961 5 5 0 6.379613596635156 5.756412092413523 -21.57972091203631 2 0 0
996 5 5 0 9.937419417137505 2.0608487356788157 -21.34537667253394 2 1 0
780 4 5 0 4.568593976394274 0.5785147928023218 -25.030077963583224 2 1 0
619 4 5 0 7.42699991095941 0.5867468899979897 -25.072582323079125 1 1 0
620 4 5 0 8.853625429185772 0.5907128439386486 -25.21622136582916 1 1 0
621 4 5 0 5.307071130013247 1.8385931788308199 -24.977365339250063 1 1 0
622 4 5 0 6.757172349550455 1.834446204054629 -25.15889015272948 1 1 0
661 4 5 0 9.577350366488442 1.819419022307061 -24.942742773601065 1 1 0
784 4 5 0 4.6304703234059 3.0879674801195396 -25.108076666423177 2 1 0
788 4 5 0 4.628413532371759 5.542242916492956 -25.04884531922118 2 1 0
623 4 5 0 7.455545171398644 3.0695933230268473 -24.98747947337668 1 1 0
624 4 5 0 8.913868121286619 3.0879734475101372 -25.086369665139816 1 1 0
625 4 5 0 5.322336645210703 4.31394290842157 -24.92647972655832 1 1 0
626 4 5 0 6.742513828418531 4.289455984266763 -25.035423725989006 1 1 0
665 4 5 0 9.632275516555097 4.287111563541629 -24.880854670080172 1 1 0
627 4 5 0 7.45281726187174 5.509653540018835 -24.905929564466458 1 1 0
628 4 5 0 8.902916958671561 5.520588367217638 -25.06099306008907 1 1 0
994 5 5 0 7.780066832688856 0.8578895890378444 -21.349555426967836 2 1 0
956 5 5 0 5.674649122629631 2.0753026938174646 -21.423419435257323 2 1 0
1452 156 4 -0.35 -1.4322023488393523 7.339504003580629 -18.16029666326166 -1 -2 0
962 5 5 0 7.824074664620365 5.772384370173874 -21.46053541537801 2 0 0
1268 95 3 0.7 -4.108295725926199 -11.571305266648013 -16.571730995668943 -1 -1 0
1387 134 4 -0.35 -0.6173415718733697 12.29659872176753 -17.07925929043011 -1 -1 0
930 5 5 0 3.57912515081175 10.675498629190937 -21.134883571258342 2 0 0
1249 88 4 -0.35 -2.5062876666001905 10.035417975396218 -18.040675813341792 -2 -1 0
538 3 5 0 -0.9547659541788249 0.782811004518269 -28.50879040812204 2 1 0
843 5 5 0 -4.174662451873272 6.973670198475688 -21.529632090330225 2 0 0
803 5 5 0 -8.404930833081785 6.960945491773117 -21.463841425404375 2 0 0
811 5 5 0 -8.47272950858327 11.967092740373133 -21.424890618271846 2 0 0
807 5 5 0 -8.42856020999446 9.48578396899357 -21.48325065679541 2 0 0
810 5 5 0 -9.155650198262034 10.729171739383105 -21.323192317056098 2 0 0
710 4 5 0 -5.949889921157196 6.765931285730527 -25.094226905258946 2 1 0
709 4 5 0 -7.410703977256661 6.806779313552159 -24.87600611684265 2 1 0
712 4 5 0 -3.8506670025635366 8.011260983346371 -25.261917712216444 2 1 0
711 4 5 0 -5.213361575323831 8.030679939087616 -24.929183459342603 2 1 0
672 4 5 0 -8.113414229884723 8.048283855075816 -25.041075931391774 2 1 0
671 4 5 0 -9.528696955579278 8.009025943338308 -24.80140395160135 2 1 0
714 4 5 0 -5.926534035161008 9.254311550480953 -25.020421560286216 2 1 0
713 4 5 0 -7.341022894265037 9.22342241595707 -24.873534976531293 2 1 0
716 4 5 0 -3.7922863579090293 10.477744403805499 -25.019308176596244 2 1 0
715 4 5 0 -5.209027374917001 10.475446700773421 -24.918347503209365 2 1 0
676 4 5 0 -8.06389785058549 10.493703948480185 -25.05707803194838 2 1 0
718 4 5 0 -5.94128945782644 11.677143049320964 -25.0206387541244 2 1 0
717 4 5 0 -7.3758426273178745 11.732128948048064 -24.91749486209593 2 1 0
675 4 5 0 -9.490263695440564 10.516977341072224 -24.815619166428082 2 1 0
845 5 5 0 -6.344180958796386 8.188039030760777 -21.473400770169206 2 0 0
670 4 5 0 -10.210036668318468 6.772746804676302 -25.033493478684054 2 1 0
674 4 5 0 -10.191826567213816 9.277357841653629 -24.928454087355515 2 1 0
678 4 5 0 -10.199093314071622 11.732054380625307 -24.945576337333552 2 1 0
806 5 5 0 -9.109097920602954 8.201951326547388 -21.35449184406677 2 0 0
511 3 5 0 -4.439128230426024 9.458087641418548 -28.567018763404466 2 1 0
1097 38 3 0.7 3.8597946191993167 4.4557938249902485 -17.34567822129187 -3 -3 0
497 3 5 0 -6.602961635767935 0.7901591719199779 -28.360576491000785 2 1 0
1099 38 4 -0.35 4.293679994419284 4.264457684904812 -18.40171187733959 -3 -3 0
753 4 5 0 -3.134444212838562 9.233577503915374 -25.023355203040765 2 1 0
757 4 5 0 -3.1127361930391313 11.701038395278829 -24.72592266927747 2 1 0
749 4 5 0 -3.154082028758462 6.747824522109539 -25.001340684969165 2 1 0
884 5 5 0 1.4616331908934423 6.929705511576788 -21.33282333511113 2 0 0
883 5 5 0 0.041103733673100606 6.945783665773405 -21.503954157228378 2 0 0
885 5 5 0 -2.0614094550832522 8.2232359664374 -21.491158872190802 2 0 0
887 5 5 0 -0.008407139305040445 9.45725639034367 -21.450858618882968 2 0 0
750 4 5 0 -1.74602709112221 6.7241925453883304 -25.150872520971557 2 1 0
789 4 5 0 1.1153727218400888 6.7865631642966555 -24.882570828639807 2 1 0
790 4 5 0 2.5326150390815556 6.792586244767172 -25.033577899093153 2 1 0
751 4 5 0 -1.0518837137708381 7.962319338520082 -24.980869301862374 2 1 0
752 4 5 0 0.37690044751187735 7.990540119859968 -25.098586161730815 2 1 0
791 4 5 0 3.2146965897115933 8.003345692728907 -24.91484502319315 2 1 0
754 4 5 0 -1.6976912884843038 9.23361094918235 -25.16779685428913 2 1 0
793 4 5 0 1.064294621427326 9.211918416076756 -24.855768263232015 2 1 0
794 4 5 0 2.479356786667749 9.230991059872377 -24.998729990323802 2 1 0
795 4 5 0 3.21124663184599 10.476082644310182 -24.84832895088498 2 1 0
755 4 5 0 -1.009717217140924 10.44942889379152 -24.920334999629667 2 1 0
756 4 5 0 0.386136888057667 10.485760452338415 -25.008167586906296 2 1 0
758 4 5 0 -1.6901822861239584 11.686843373867788 -24.94018055210403 2 1 0
798 4 5 0 2.5413174428942877 11.677631499139455 -25.063686282157175 2 1 0
797 4 5 0 1.1100760989436598 11.718098973473655 -24.836240536254323 2 1 0
889 5 5 0 -2.1456096374163316 10.710159792413556 -21.467406404677213 2 0 0
925 5 5 0 2.1132813959932193 8.217220027738367 -21.434578110789875 2 0 0
891 5 5 0 0.017758067115728693 11.895875077485151 -21.388302813445204 2 0 0
926 5 5 0 3.5793365687113194 8.2097880713055 -21.2804866793709 2 0 0
929 5 5 0 2.1385167495155493 10.674258501159372 -21.259055414748836 2 0 0
549 3 5 0 -2.33235698413797 8.228480505730698 -28.62306118209084 2 1 0
551 3 5 0 -0.22940077390613212 9.412523777140823 -28.539244799135876 2 1 0
493 3 5 0 -6.6261357030040475 -1.7103746299771867 -28.42969095719324 2 1 0
500 3 5 0 -3.0456320643062647 1.9812941795679073 -28.57183251127407 2 1 0
966 5 5 0 7.834946119156335 8.271422010599633 -21.292980249911615 2 0 0
927 5 5 0 4.239846295229832 9.460730965679357 -21.451483849184633 2 0 0
963 5 5 0 8.48905062648507 7.052890028257167 -21.476589644824692 2 0 0
805 5 5 0 -10.562278483424647 8.23456175155112 -21.505274391511865 2 0 0
931 5 5 0 4.2880449901806035 11.908097875625238 -21.30028749913097 2 0 0
971 5 5 0 8.538187003853256 11.94557861112327 -21.3716961798195 2 0 0
967 5 5 0 8.532988949298531 9.473964745104592 -21.444849186023937 2 0 0
969 5 5 0 6.392553078646017 10.73306383683203 -21.35197913615575 2 0 0
809 5 5 0 -10.550293083997158 10.718604524262261 -21.44800554399032 2 0 0
629 4 5 0 5.340073044753112 6.75826283774872 -24.976701075919337 1 1 0
630 4 5 0 6.783609289548426 6.742608470295163 -25.076491711687012 1 1 0
669 4 5 0 9.584699491057272 6.783512430652369 -24.867748118165853 1 1 0
792 4 5 0 4.629799994168259 8.025246522611155 -24.98362614072681 2 1 0
631 4 5 0 7.457585297242929 8.012675392240563 -24.92614663130816 1 1 0
632 4 5 0 8.878005107685091 7.996446562972377 -24.974961781458276 1 1 0
796 4 5 0 4.619934141705505 10.473803705570472 -25.02467887580623 2 1 0
633 4 5 0 5.313615074709473 9.236518620645967 -24.844166925288494 1 1 0
673 4 5 0 9.591023196884738 9.239431866773657 -24.801379551323716 1 1 0
634 4 5 0 6.752695211094974 9.235484619280317 -25.041557896088996 1 1 0
635 4 5 0 7.46933773997738 10.479876586103295 -24.888368003518135 1 1 0
636 4 5 0 8.924272947048731 10.49088159062569 -24.971539598110226 1 1 0
637 4 5 0 5.3538459703535 11.683026353319313 -24.861099934321462 1 1 0
677 4 5 0 9.623483660169313 11.705403172911918 -24.7908017090606 1 1 0
638 4 5 0 6.786240501130813 11.729643673265311 -24.956894169029425 1 1 0
968 5 5 0 9.983853134742489 9.48176932523305 -21.302251920103703 2 0 0
595 3 5 0 4.046787953684541 11.895577745060507 -28.531971575753527 2 1 0
433 3 5 0 6.140637866154648 10.69133864285758 -28.523627211252197 1 1 0
924 5 5 0 5.701487665266935 7.017148785022094 -21.398876859016628 2 0 0
923 5 5 0 4.278989184938723 6.97226694445704 -21.489538887736632 2 0 0
964 5 5 0 9.920395533255668 7.0147086252880015 -21.364770043797673 2 0 0
965 5 5 0 6.410726052291704 8.25038065526632 -21.495311804459348 2 0 0
535 3 5 0 -0.2355861788753444 -0.4560624066522099 -28.43793292706317 2 1 0
852 5 5 0 -2.810236863282392 11.955040426761709 -21.292770584775994 2 0 0
492 3 5 0 -3.0296645720743047 -2.9220637244673426 -28.516526524753058 2 1 0
434 3 5 0 7.588849345399758 10.67355315906969 -28.40598488944907 1 1 0
890 5 5 0 -0.7346555700961694 10.692601339892818 -21.267766543679393 2 0 0
859 5 5 0 -4.216385760107083 -7.847176389366512 -21.28764970536732 2 1 0
857 5 5 0 -6.348961517778856 -9.114581314871405 -21.204378382906363 2 1 0
819 5 5 0 -8.496974030055654 -7.848545014825883 -21.241192490133702 2 1 0