LAMMPS data file via write_data, version 23 Jun 2022, timestep = 10000

1000 atoms
5 atom types
1500 bonds
3 bond types
3000 angles
3 angle types
6000 dihedrals
1 dihedral types
1000 impropers
1 improper types

-10.604020997495237 10.604020997495237 xlo xhi
-12.358509382989562 12.358509382989562 ylo yhi
-28.8 28.8 zlo zhi

Masses

1 15.9994
2 1.008
3 12.0107
4 15.9994
5 12.011

Pair Coeffs # lj/cut

1 0.18481 3.165
2 0 0
3 0.053649 2.8
4 0.156973 3.05
5 0.0663 3.5812

Bond Coeffs # harmonic

1 0 0.9572
2 2566.7 1.16
3 610 1.42

Angle Coeffs # harmonic

1 0 104.52
2 295.4 180
3 80 120

Dihedral Coeffs # opls

1 0 7.25 0 0

Improper Coeffs # harmonic

1 5 180

Atoms # full

547 3 5 0 -5.002570419458919 -7.625783616381329 28.683835701479072 1 1 -1
704 4 5 0 -8.75833657688452 -11.27216357108249 -25.33450538601675 1 1 0
708 4 5 0 -8.737618712041193 -8.786983458234815 -25.3817908776557 1 1 0
743 4 5 0 -5.957687453167884 -11.256651479084073 -25.127999265078948 1 1 0
744 4 5 0 -4.5292566408148245 -11.24941405238703 -25.20759895354843 1 1 0
745 4 5 0 -8.055884017946724 -10.031824277914016 -25.218895847508595 1 1 0
746 4 5 0 -6.637585407903879 -10.021333303402539 -25.34870911317384 1 1 0
747 4 5 0 -5.950693466115995 -8.791124597924096 -25.07667259971259 1 1 0
748 4 5 0 -4.520639452753924 -8.78183760039633 -25.229674460346423 1 1 0
749 4 5 0 -8.035900492608043 -7.572429984390411 -25.11659077225847 1 1 0
750 4 5 0 -6.615211662492259 -7.554195200496993 -25.293753655693273 1 1 0
751 4 5 0 -5.930932295809826 -6.345058244989167 -24.971640018714997 1 1 0
703 4 5 0 -10.196415612263154 -11.252272618230688 -25.156918491679328 1 1 0
707 4 5 0 -10.168029251650253 -8.768674662538658 -25.20993872045474 1 1 0
711 4 5 0 -10.164220092866543 -6.325721191055082 -25.088340538243912 1 1 0
712 4 5 0 -8.731205038237784 -6.321384760424473 -25.261584168905813 1 1 0
752 4 5 0 -4.50021969913612 -6.328149450743355 -25.087794001660594 1 1 0
508 3 5 0 -7.802839764358234 -7.636899539722482 -28.701208680666863 1 1 0
541 3 5 0 -7.070059836452622 -11.352666847948026 -28.52119792382709 1 1 0
503 3 5 0 -9.225337234506382 -10.064719673535855 -28.711867349380984 1 1 0
550 3 5 0 -5.704925341310675 -6.395821010092067 28.74022991329124 1 1 -1
510 3 5 0 -9.960034118176528 -6.442379495332169 -28.77421688473052 1 1 0
706 4 5 0 10.328518914370001 -10.00276186012453 -25.405862450481578 0 1 0
710 4 5 0 10.330782293897059 -7.535038951665607 -25.315866073547753 0 1 0
549 3 5 0 -7.0989556174028765 -6.377500453547545 28.673057945946393 1 1 -1
785 4 5 0 -3.840771341765392 -10.017613324677566 -25.016165752275363 1 1 0
789 4 5 0 -3.8244077887344625 -7.569656779884106 -24.97316573173893 1 1 0
623 4 5 0 2.4827589914308312 -11.254103016457337 -24.983199440547033 0 1 0
625 4 5 0 0.3993005589086991 -10.005781331749727 -24.967681680583993 0 1 0
626 4 5 0 1.8145405617720147 -9.99713286362285 -25.132330039673242 0 1 0
627 4 5 0 2.496458106987639 -8.771407697663335 -24.924883201733337 0 1 0
629 4 5 0 0.4181955307390286 -7.556292388393318 -24.96943296066057 0 1 0
630 4 5 0 1.8314165270829061 -7.53676789505122 -25.100920579334442 0 1 0
783 4 5 0 -1.7130244526263887 -11.25410137586857 -24.933653767144868 1 1 0
784 4 5 0 -0.3055172734385323 -11.239056049524212 -25.20476916696221 1 1 0
786 4 5 0 -2.404409416222723 -10.026802475103207 -25.147639519464224 1 1 0
787 4 5 0 -1.7049520310485153 -8.776088017062293 -24.995609486331897 1 1 0
788 4 5 0 -0.276701208810195 -8.775316394352249 -25.182009573733914 1 1 0
790 4 5 0 -2.4155667867840585 -7.547216803258377 -25.14277081292046 1 1 0
791 4 5 0 -1.7067241450611093 -6.325177402989905 -24.906574263429523 1 1 0
792 4 5 0 -0.2764452541822866 -6.319023325002005 -25.09909089638023 1 1 0
588 3 5 0 0.6790243564807419 -7.6112285571293326 28.7201450460066 1 1 -1
590 3 5 0 -1.4602072532796289 -6.3105091605000565 28.77048455034508 1 1 -1
586 3 5 0 -1.5129690129510855 -8.831439995706628 28.72227752355726 1 1 -1
581 3 5 0 -2.892242990654468 -11.335695906519103 28.615942425234007 1 1 -1
430 3 5 0 2.789168459746424 -6.365665370049568 28.62070620549459 0 1 -1
585 3 5 0 -2.896935885583141 -8.848486676999457 28.720482777709567 1 1 -1
584 3 5 0 0.6241434759473705 -10.07981566060774 28.688074506629395 1 1 -1
426 3 5 0 2.7657873356353946 -8.877736674815791 28.680885552476607 0 1 -1
624 4 5 0 3.92492961896661 -11.246077788773743 -25.053341695630216 0 1 0
628 4 5 0 3.908231820706982 -8.767515865997627 -25.144415576322352 0 1 0
463 3 5 0 7.727938203122207 -10.12427691510092 -28.687343260361526 0 1 0
465 3 5 0 5.601776863702767 -8.867081997911034 -28.768745467539464 0 1 0
466 3 5 0 7.024311967431675 -8.868661620337456 28.669328455546427 0 1 -1
505 3 5 0 9.825263081578289 -8.849537897120182 -28.70946668989224 0 1 0
663 4 5 0 6.75495067452664 -11.230999233835995 -24.969375802223905 0 1 0
664 4 5 0 8.187871506307395 -11.243781904039327 -25.20650271998477 0 1 0
665 4 5 0 4.620796587711039 -9.997218653000326 -24.94129238932564 0 1 0
666 4 5 0 6.0395538947885115 -9.99313712680595 -25.134268831275378 0 1 0
667 4 5 0 6.743812361460577 -8.747436686505953 -25.092008712422917 0 1 0
668 4 5 0 8.170921780064873 -8.768334773331544 -25.331490082278624 0 1 0
669 4 5 0 4.608895371142035 -7.520418296155393 -25.02059392409833 0 1 0
670 4 5 0 6.020888464577816 -7.5207837205021315 -25.300217095312558 0 1 0
671 4 5 0 6.736083885477203 -6.297061549654844 -25.144182962761878 0 1 0
672 4 5 0 8.160786704612207 -6.299564213618736 -25.312658854772717 0 1 0
705 4 5 0 8.89899191306456 -9.997706018100756 -25.178797513915192 0 1 0
709 4 5 0 8.88688527345683 -7.53140492898728 -25.165773268258576 0 1 0
467 3 5 0 7.741890919066726 -7.68235987443998 -28.69519546612251 0 1 0
509 3 5 0 9.854124113131277 -6.4078501649431585 -28.7666950655042 0 1 0
501 3 5 0 9.875790543009238 -11.323944597119915 -28.526577021586508 0 1 0
470 3 5 0 7.109315592901265 -6.44649490141987 28.634506822963 0 1 -1
464 3 5 0 9.164177826349238 -10.1111906819754 -28.784538191033665 0 1 0
468 3 5 0 9.131996892468155 -7.629446242989315 28.64453832918298 0 1 -1
469 3 5 0 5.666110727859859 -6.402765646985417 -28.77473880453938 0 1 0
428 3 5 0 4.880237771729604 -7.640076799878503 28.65736338374303 0 1 -1
716 4 5 0 -8.75964272254972 -3.8678088215589455 -25.279687411689547 1 1 0
720 4 5 0 -8.781231355367247 -1.4041902037612086 -25.229523732136204 1 1 0
753 4 5 0 -8.055227594077884 -5.088516100519052 -25.029670272220617 1 1 0
754 4 5 0 -6.621720871789458 -5.099828157841499 -25.126782090472666 1 1 0
755 4 5 0 -5.954356090493715 -3.8699706265509786 -24.88252025254379 1 1 0
756 4 5 0 -4.527189014227779 -3.8490717969657577 -25.038919289021734 1 1 0
757 4 5 0 -8.08276205238983 -2.6434318343138656 -25.03591921631122 1 1 0
758 4 5 0 -6.647334940352664 -2.6426718372789892 -25.10035288145614 1 1 0
759 4 5 0 -5.973150465774519 -1.395595019796934 -24.91460828460278 1 1 0
760 4 5 0 -4.5428372854010455 -1.3751286445513085 -25.095699928904033 1 1 0
715 4 5 0 -10.187333326328945 -3.85245183806056 -25.151730640295078 1 1 0
719 4 5 0 -10.210036643991307 -1.37444925486394 -25.158121552819114 1 1 0
721 4 5 0 -8.119538663431094 -0.16388224393862139 -24.951046742960227 1 0 0
722 4 5 0 -6.693483538474771 -0.1654430088558314 -25.056249952732767 1 0 0
514 3 5 0 -9.870659415339901 -3.8718007193840602 -28.666517602814032 1 1 0
516 3 5 0 -7.719282466677122 -2.6709807256874196 -28.693854877259465 1 1 0
554 3 5 0 -5.719097461791501 -3.8832928293124684 -28.733694492791106 1 1 0
556 3 5 0 -3.5109935521493867 -2.654965721611328 28.743938765777823 1 1 -1
714 4 5 0 10.31310698719233 -5.09519475169542 -25.230720104102485 0 1 0
718 4 5 0 10.31568493042505 -2.6217490213345 -25.35736864183762 0 1 0
682 4 5 0 10.313618939824774 -0.10515397018459538 -25.263654224351683 0 0 0
512 3 5 0 -7.815964926307698 -5.16534846641838 -28.719898362651353 1 1 0
511 3 5 0 -9.222155992844176 -5.170060329156287 28.640952312696978 1 1 -1
631 4 5 0 2.519448870208622 -6.298951622526517 -24.928172051301217 0 1 0
793 4 5 0 -3.8195269857329333 -5.08295391559612 -24.867348228560143 1 1 0
797 4 5 0 -3.82174085394297 -2.601233449936748 -24.90801048592184 1 1 0
761 4 5 0 -3.8506162822122336 -0.1373343566848959 -24.918899493729267 1 0 0
593 3 5 0 -2.8418587468098364 -3.890830595005191 28.731667734314097 1 1 -1
633 4 5 0 0.4303739280080947 -5.080946618092102 -24.887452950566782 0 1 0
634 4 5 0 1.8401150429021644 -5.063539645369436 -25.115358258097434 0 1 0
635 4 5 0 2.5283374502894347 -3.827417026367934 -24.929525822876734 0 1 0
637 4 5 0 0.42388357922361486 -2.598804605881279 -24.959147879098147 0 1 0
638 4 5 0 1.8454765269604696 -2.601880227785861 -25.16946073468131 0 1 0
639 4 5 0 2.5358404568819086 -1.3435494035421236 -25.162741451868868 0 1 0
794 4 5 0 -2.389105726884342 -5.071404281323487 -25.01303549313786 1 1 0
795 4 5 0 -1.6971755685521366 -3.8254073743106254 -24.84577669972097 1 1 0
796 4 5 0 -0.27776408642012207 -3.8440939340226734 -25.050290564110227 1 1 0
798 4 5 0 -2.393687600496582 -2.600522767011025 -25.123137129427125 1 1 0
799 4 5 0 -1.7088709541346567 -1.346026434361855 -25.057959819027474 1 1 0
800 4 5 0 -0.2784751014569604 -1.3806222389150147 -25.26252929334936 1 1 0
762 4 5 0 -2.433982909396221 -0.11115312625053875 -25.19698892293356 1 0 0
434 3 5 0 2.7637912547100925 -3.9118080042226353 -28.666811250737947 0 1 0
602 4 5 0 1.8178962111910462 -0.11597978029942446 -25.365718448716205 0 0 0
601 4 5 0 0.4025457809364408 -0.12341354726807907 -25.163790697369254 0 0 0
595 3 5 0 -0.667223029278178 -2.692906586021019 28.60860025823307 1 1 -1
435 3 5 0 3.547234581324032 -2.683762893197441 28.7677711330817 0 1 -1
596 3 5 0 0.7397169599570539 -2.6704805659789983 -28.728872374794367 1 1 0
632 4 5 0 3.9197618759163877 -6.298388185333394 -25.171878135755662 0 1 0
636 4 5 0 3.9377636147056094 -3.830108527260789 -25.1778102773929 0 1 0
640 4 5 0 3.9465206601419567 -1.3392361519843057 -25.364638097661253 0 1 0
673 4 5 0 4.6330897863294105 -5.079616407454008 -25.041746745875102 0 1 0
674 4 5 0 6.042254705651487 -5.0697253262496345 -25.284350444105357 0 1 0
675 4 5 0 6.756844751782239 -3.8369379562055084 -25.09841064649476 0 1 0
676 4 5 0 8.181444930171256 -3.844782100750166 -25.295686759453456 0 1 0
677 4 5 0 4.634566383313922 -2.5666329282731635 -25.09130413889973 0 1 0
678 4 5 0 6.063908181699116 -2.5817586979126492 -25.24037926117771 0 1 0
679 4 5 0 6.748997992530871 -1.3571463147108087 -25.02497711867979 0 1 0
680 4 5 0 8.168022760054814 -1.3731349826061674 -25.268504988614957 0 1 0
713 4 5 0 8.866674693911023 -5.074155540354959 -25.114013172025576 0 1 0
717 4 5 0 8.886694466690436 -2.6240927060334 -25.153129603698197 0 1 0
642 4 5 0 6.0563916728672496 -0.11095219588895056 -25.228205805233937 0 0 0
641 4 5 0 4.614335233717767 -0.09581333594388397 -25.215300387386357 0 0 0
471 3 5 0 7.807206327310954 -5.163406530368671 -28.790725984490557 0 1 0
513 3 5 0 9.891649996430239 -3.9173594578990905 -28.59024772215112 0 1 0
473 3 5 0 5.659037542433005 -3.909853069265882 -28.78332434889531 0 1 0
475 3 5 0 7.788590151714857 -2.709224374403039 -28.55344726994656 0 1 0
476 3 5 0 9.198456273793983 -2.734074645351871 -28.558872533431156 0 1 0
517 3 5 0 9.889109078813682 -1.4993252926882885 28.777190727569174 0 1 -1
432 3 5 0 4.938765933557574 -5.145682985813144 28.650083145100634 0 1 -1
472 3 5 0 9.22522424140167 -5.118005620855877 28.70864127590355 0 1 -1
474 3 5 0 7.060007296778075 -3.899940201681307 28.777632232470783 0 1 -1
479 3 5 0 7.817275071446449 -0.20975042701766355 -28.569715704234408 0 1 0
477 3 5 0 5.659244190127762 -1.4378483422767285 -28.713858168590566 0 1 0
684 4 5 0 -8.77793989820975 1.1086791653229664 -25.153796525422468 1 0 0
688 4 5 0 -8.745773560209345 3.587263728751786 -25.17207704445567 1 0 0
692 4 5 0 -8.75881841483157 6.041644679317178 -25.08366403564248 1 0 0
723 4 5 0 -6.010637573507688 1.0866930882841377 -24.84442326216554 1 0 0
724 4 5 0 -4.573583433140238 1.1007082739375615 -25.045674780847477 1 0 0
725 4 5 0 -8.095999537768442 2.3464705100822805 -24.929053539871006 1 0 0
726 4 5 0 -6.679618521711596 2.341066838998648 -25.025711067668986 1 0 0
727 4 5 0 -5.971190827453456 3.571416583670482 -24.89643398161706 1 0 0
728 4 5 0 -4.558566089818413 3.579665024520523 -25.098835716528 1 0 0
729 4 5 0 -8.055753407095688 4.809238124399885 -24.947711434602006 1 0 0
730 4 5 0 -6.651846397045981 4.787018468407561 -25.13280658203524 1 0 0
731 4 5 0 -5.971360849563669 6.02616552916531 -24.999267907011028 1 0 0
732 4 5 0 -4.563453264417715 6.0255112885564746 -25.25047238086769 1 0 0
683 4 5 0 -10.200673292305366 1.1295837518765612 -25.005230101018327 1 0 0
687 4 5 0 -10.159958936761846 3.5876519982575648 -24.93031961119472 1 0 0
691 4 5 0 -10.169567218415157 6.045606277274077 -24.88491068267696 1 0 0
490 3 5 0 -9.92639673567806 5.9751343948042805 -28.615655063486322 1 0 0
488 3 5 0 -7.772034656952501 4.696514159915187 -28.62227701667458 1 0 0
523 3 5 0 -4.920650648768058 2.279369797182211 -28.594637399434664 1 0 0
528 3 5 0 -3.5645162791819107 4.731121205946293 28.712160711334093 1 0 -1
524 3 5 0 -3.5432527951982893 2.2571086128661566 -28.537730450982263 1 0 0
527 3 5 0 -4.973477855777554 4.766031376839274 -28.57548328448478 1 0 0
686 4 5 0 10.330036967929559 2.3726615627561554 -25.107589535950392 0 0 0
690 4 5 0 10.35085083438414 4.819788005791393 -25.08486392903587 0 0 0
483 3 5 0 -9.212242319128848 2.228157308525077 -28.646635433118778 1 0 0
530 3 5 0 -5.704586157584952 5.936831519701654 28.77674049729191 1 0 -1
765 4 5 0 -3.86180136769509 2.3510579613746696 -24.888579772785803 1 0 0
769 4 5 0 -3.858409199808529 4.812390665616112 -24.99073916874499 1 0 0
603 4 5 0 2.4914447772547117 1.1308418055379459 -25.21767928746926 0 0 0
605 4 5 0 0.38480583136746915 2.3466188178108123 -25.14693442267156 0 0 0
606 4 5 0 1.7918877473025923 2.3502893896547885 -25.458582534915006 0 0 0
607 4 5 0 2.498404495157674 3.5964107157665737 -25.363701887388157 0 0 0
609 4 5 0 0.3975430132664304 4.8388004287575885 -25.20857352674638 0 0 0
610 4 5 0 1.8076939128465952 4.835545708843993 -25.503742924839784 0 0 0
611 4 5 0 2.4853593408978636 6.050187316984653 -25.220622803269794 0 0 0
763 4 5 0 -1.7129576281389038 1.115588919246056 -25.027268090085837 1 0 0
764 4 5 0 -0.3081016601595188 1.1112250374101915 -25.305781522686612 1 0 0
766 4 5 0 -2.4279043404444813 2.3516347065656777 -25.103128871581635 1 0 0
767 4 5 0 -1.7105939124349465 3.583254429155595 -24.99947061770817 1 0 0
768 4 5 0 -0.30398958969436407 3.5901909332618764 -25.29482223444229 1 0 0
770 4 5 0 -2.4341382283661694 4.802059070861679 -25.200731960246756 1 0 0
771 4 5 0 -1.744027995528164 6.0632186078687536 -25.177946670090368 1 0 0
772 4 5 0 -0.3319354615750161 6.044250192402993 -25.438931698537345 1 0 0
403 3 5 0 3.5297223679648173 2.2884974910563702 -28.78917911744757 0 0 0
406 3 5 0 2.8210327848640997 3.5078989015723767 28.71667865652623 0 0 -1
407 3 5 0 3.5241899381592283 4.749431863444004 -28.675240154060173 0 0 0
405 3 5 0 1.4238720917876933 3.4891092473310596 -28.786062736499552 0 0 0
409 3 5 0 1.4642511212753657 5.982939502132519 -28.77611418415778 0 0 0
567 3 5 0 -0.7069972598039396 4.737129623553129 28.491371575236766 1 0 -1
681 4 5 0 8.879378076746491 -0.12604205166207194 -25.06365963853581 0 0 0
612 4 5 0 3.9195026063334772 6.060157704086775 -25.27144719685021 0 0 0
604 4 5 0 3.9105735218858992 1.1338658379803217 -25.409790219476648 0 0 0
608 4 5 0 3.9262304613294585 3.6036116262771998 -25.42356944133728 0 0 0
643 4 5 0 6.744937640128359 1.1430181094459986 -25.03757904851458 0 0 0
644 4 5 0 8.18456254290506 1.1379975440434063 -25.12778721306019 0 0 0
645 4 5 0 4.6086677221802095 2.375718979639398 -25.190693461565765 0 0 0
646 4 5 0 6.0592675080505245 2.3851799545976746 -25.245661460112267 0 0 0
647 4 5 0 6.765721755600406 3.5982837369994183 -25.013603211757758 0 0 0
648 4 5 0 8.208964373881017 3.593316339484346 -25.06746363486648 0 0 0
649 4 5 0 4.609810699721027 4.819576301681019 -25.110822588370922 0 0 0
650 4 5 0 6.053744212223702 4.820619899147742 -25.19214189193187 0 0 0
651 4 5 0 6.751754918454324 6.05705196672003 -24.98703310134286 0 0 0
685 4 5 0 8.907629009409888 2.356600627844273 -24.909304387860068 0 0 0
689 4 5 0 8.917411220872701 4.834226675740441 -24.895821463151965 0 0 0
652 4 5 0 8.202764552247583 6.05995206476201 -25.10843918253214 0 0 0
441 3 5 0 5.647441504843119 1.0398003992128206 -28.741724703296104 0 0 0
449 3 5 0 5.658141718020772 5.936706930085572 -28.73004317499483 0 0 0
443 3 5 0 7.783748107065005 2.2395857427471526 -28.670037876617698 0 0 0
696 4 5 0 -8.77085844218183 8.511843415201382 -25.08190279585856 1 0 0
700 4 5 0 -8.792689840123897 10.989746549731171 -25.14337882203392 1 0 0
733 4 5 0 -8.083384395166183 7.273971391331182 -24.869487219935348 1 0 0
734 4 5 0 -6.673406292490355 7.272532178309005 -25.133961954757883 1 0 0
735 4 5 0 -5.9844752378237365 8.514084529330257 -24.95120988029219 1 0 0
736 4 5 0 -4.5769469093391475 8.511929240727076 -25.244085919364885 1 0 0
737 4 5 0 -8.089592217836636 9.758373015812124 -24.92150153681147 1 0 0
738 4 5 0 -6.681042013450183 9.742689374925474 -25.130742749239293 1 0 0
739 4 5 0 -5.970009012611054 10.968610324674563 -25.017901313770043 1 0 0
740 4 5 0 -4.539750813908274 10.995761069706932 -25.208012350118732 1 0 0
741 4 5 0 -8.06760155700982 12.222067200304677 -25.08769033672387 1 0 0
742 4 5 0 -6.643925644046097 12.201458786861954 -25.2872796817076 1 0 0
695 4 5 0 -10.196529093079388 8.521051338296497 -24.95752453086195 1 0 0
699 4 5 0 -10.213432541880682 11.003857945739332 -24.970657097779267 1 0 0
499 3 5 0 -9.213993820655034 12.161256086236692 -28.679076306377862 1 0 0
531 3 5 0 -4.9927688932162315 7.151644174301479 -28.659076131561182 1 0 0
536 3 5 0 -3.5981079531075792 9.590002191562045 28.628851199102193 1 0 -1
538 3 5 0 -5.703545771768246 10.852916038016707 28.38378765543762 1 0 -1
492 3 5 0 -7.869935257495257 7.213114008053116 -28.647960336804584 1 0 0
494 3 5 0 -9.991352189518581 8.433013530985777 -28.620988488111447 1 0 0
533 3 5 0 -7.1369429081962465 8.422702270591268 28.734857928617476 1 0 -1
534 3 5 0 -5.738562241820606 8.385807683421715 28.629898104710936 1 0 -1
535 3 5 0 -5.018308187102982 9.614174430950404 28.665570244772685 1 0 -1
540 3 5 0 -3.583318321754307 12.119091816247087 28.555194186772983 1 0 -1
500 3 5 0 -7.802150378554128 12.114515321802942 -28.573961816310547 1 0 0
496 3 5 0 -7.812191259217172 9.681600535979408 -28.787401991711686 1 0 0
532 3 5 0 -3.526205276453658 7.203906558262586 -28.702619553970905 1 0 0
694 4 5 0 10.332438906397883 7.271981126000851 -25.11570059973616 0 0 0
698 4 5 0 10.30859146308526 9.762617162625643 -25.167169627048445 0 0 0
702 4 5 0 10.299498476707953 12.217918491336947 -25.202457834352266 0 0 0
495 3 5 0 -9.244315995503218 9.650154711512558 -28.52859108071708 1 0 0
773 4 5 0 -3.8650008358604193 7.2742481554820895 -25.14028462783924 1 0 0
777 4 5 0 -3.8624380486880394 9.740492773384643 -25.079024731654442 1 0 0
781 4 5 0 -3.8373516952971674 12.243127936001082 -24.98005914120979 1 0 0
613 4 5 0 0.3580075247581096 7.282580819265673 -25.575888191679024 0 0 0
614 4 5 0 1.7903534245850174 7.28070816514642 -25.446181233352434 0 0 0
615 4 5 0 2.458399744955708 8.511518180835646 -25.177670086844206 0 0 0
617 4 5 0 0.36154520044448013 9.754425750654955 -25.24336796650469 0 0 0
618 4 5 0 1.8026332720401754 9.767581722008694 -25.390945567944673 0 0 0
619 4 5 0 2.477990985844057 10.990960809904655 -25.077361778579526 0 0 0
621 4 5 0 0.37074738841137744 12.215188745963948 -25.133470935680027 0 0 0
622 4 5 0 1.7966606760513866 12.223269580575826 -25.25785223525805 0 0 0
774 4 5 0 -2.4569340708611236 7.278467337459469 -25.436788608230064 1 0 0
775 4 5 0 -1.7753636162157491 8.514315323152056 -25.25099466018351 1 0 0
776 4 5 0 -0.36078047849372297 8.523162775046552 -25.456996127089173 1 0 0
778 4 5 0 -2.4573612992904383 9.768479887220673 -25.343092532955286 1 0 0
779 4 5 0 -1.7331259464933648 10.998320703231274 -25.09748332049325 1 0 0
780 4 5 0 -0.32521726372521265 10.99924430905431 -25.376179049665286 1 0 0
782 4 5 0 -2.4157290846068413 12.252869297118151 -25.147869093239898 1 0 0
579 3 5 0 -0.7476576651339251 12.146589821604037 28.598102928197225 1 0 -1
573 3 5 0 -2.8347564083988583 8.447788279729119 -28.757853537755256 1 0 0
575 3 5 0 -0.7696496806828641 9.658301714201302 28.629427446224867 1 0 -1
577 3 5 0 -2.883304944968147 10.871788283159196 28.673397348261098 1 0 -1
411 3 5 0 3.5237403792824686 7.228134791563056 -28.6572772524127 0 0 0
414 3 5 0 2.7707301739283263 8.430786273830579 28.730309725318723 0 0 -1
578 3 5 0 -1.4570315389562492 10.926143830904186 28.45170014327716 1 0 -1
571 3 5 0 -0.7361321000957695 7.18664569198233 28.750958802587594 1 0 -1
616 4 5 0 3.8932227206493195 8.501675769527106 -25.22688914609835 0 0 0
620 4 5 0 3.91070928610743 11.008213325466214 -25.099126729072996 0 0 0
653 4 5 0 4.587337653439118 7.279777949757358 -25.01081972485782 0 0 0
654 4 5 0 6.020657521474732 7.287794201429945 -25.20360210267234 0 0 0
655 4 5 0 6.735583740977116 8.531189078218821 -25.123064352315986 0 0 0
656 4 5 0 8.181157899491627 8.509161368927808 -25.244326664248607 0 0 0
657 4 5 0 4.598062840558917 9.74390250277442 -25.005472497505977 0 0 0
658 4 5 0 6.025903901917587 9.761194193152926 -25.246913549799583 0 0 0
659 4 5 0 6.745779580012872 10.972461181963466 -25.030948800791275 0 0 0
660 4 5 0 8.169549794765139 10.982102273204964 -25.233411027529538 0 0 0
661 4 5 0 4.614831582974814 12.234834266425507 -24.848582280734178 0 0 0
662 4 5 0 6.043904663527471 12.228598396088907 -25.068861571887137 0 0 0
693 4 5 0 8.898914347626405 7.2922642960928155 -25.02638256717444 0 0 0
697 4 5 0 8.870282482747935 9.746028442580924 -25.04701131437957 0 0 0
701 4 5 0 8.87135725084243 12.219814330605958 -25.00686023363128 0 0 0
456 3 5 0 9.103745994334506 9.665878101436219 -28.57487144748415 0 0 0
451 3 5 0 7.7241601010742365 7.226697235911315 -28.74135511264951 0 0 0
497 3 5 0 9.822406725070575 10.920107265246864 -28.456173683553594 0 0 0
460 3 5 0 9.163647804466503 12.163586998040122 -28.65670765101412 0 0 0
902 5 5 0 -9.581204889309156 -10.113245090583037 -21.362919703209975 1 1 0
903 5 5 0 -8.841754185940763 -8.883150994099083 -21.316149488338887 1 1 0
904 5 5 0 -7.464392067403605 -8.926816616011642 -21.642277203169552 1 1 0
906 5 5 0 -9.527966809407168 -7.721911064041913 -21.697340790102043 1 1 0
907 5 5 0 -8.854912596758968 -6.440524765466138 -21.600994252271878 1 1 0
908 5 5 0 -7.410954705245061 -6.42247281431924 -21.72413036560627 1 1 0
941 5 5 0 -6.782373693911703 -10.151398361425922 -21.592016696890614 1 1 0
942 5 5 0 -5.359813256907765 -10.180938684372533 -21.385677446450224 1 1 0
943 5 5 0 -4.613414888475217 -8.932273134521685 -21.54798788770207 1 1 0
945 5 5 0 -6.725713049888389 -7.698755899279528 -21.491166465740992 1 1 0
946 5 5 0 -5.27738967106348 -7.665546853189269 -21.720714411340467 1 1 0
947 5 5 0 -4.576170199754321 -6.4021573329459756 -21.599968467851873 1 1 0
900 5 5 0 -7.450666019179872 -11.29430315248556 -21.247427924653422 1 1 0
939 5 5 0 -4.64108794505549 -11.440475846685986 -21.519746210211178 1 1 0
899 5 5 0 -8.873692680941483 -11.346825593708108 -21.36863958120644 1 1 0
944 5 5 0 -3.195946450598508 -8.884267239437044 -21.27253654569767 1 1 0
948 5 5 0 -3.165496945222184 -6.432176882425466 -21.688508136193953 1 1 0
940 5 5 0 -3.2256574441114614 -11.379906364563498 -21.596180789352655 1 1 0
821 5 5 0 1.7456981240190892 -10.073823351151335 -21.108813948588203 0 1 0
825 5 5 0 1.8075104140266465 -7.676817846040565 -21.165883817259832 0 1 0
981 5 5 0 -2.555200639581498 -10.154771611082467 -21.239368497126875 1 1 0
982 5 5 0 -1.0990453715109272 -10.15598354478566 -21.400350330655705 1 1 0
983 5 5 0 -0.3675002520738069 -8.900200207708167 -21.161542850495447 1 1 0
984 5 5 0 1.0678494690949591 -8.889686220756753 -21.365583964548637 1 1 0
985 5 5 0 -2.442775178686203 -7.6582264119615955 -21.47701502014366 1 1 0
986 5 5 0 -1.0510257296891048 -7.655676233570452 -21.14185416306157 1 1 0
987 5 5 0 -0.317907340989926 -6.467494486332784 -21.416943523916867 1 1 0
988 5 5 0 1.070194803994875 -6.483335231432074 -21.040299719032035 1 1 0
980 5 5 0 0.9949188365133477 -11.315751453769803 -21.221501240601373 1 1 0
979 5 5 0 -0.38048875116929537 -11.440310982365236 -21.431794435562256 1 1 0
822 5 5 0 3.152889142908659 -10.097945762442937 -21.29950754926275 0 1 0
826 5 5 0 3.2334039115691926 -7.681034699581837 -21.374257006508245 0 1 0
901 5 5 0 10.219248230742789 -10.180446284540094 -21.434232890778144 0 1 0
905 5 5 0 10.227267476104789 -7.657358139138803 -21.437523276049887 0 1 0
823 5 5 0 3.8799317773855293 -8.919821046026586 -21.209288235390176 0 1 0
827 5 5 0 3.870012529718954 -6.375795802640438 -21.101456164908186 0 1 0
819 5 5 0 3.841615643507053 -11.343218182868577 -21.14292093564663 0 1 0
824 5 5 0 5.309956627358623 -8.85072989615241 -21.336967962219948 0 1 0
828 5 5 0 5.299860433180054 -6.392765620903865 -21.292666124386496 0 1 0
861 5 5 0 5.991842504574475 -10.099686940944313 -21.207318804754085 0 1 0
862 5 5 0 7.425391540761293 -10.140289084698008 -21.35974546156803 0 1 0
863 5 5 0 8.128731614765368 -8.907293436306087 -21.203295141916538 0 1 0
864 5 5 0 9.559403383690459 -8.918681239389127 -21.284766750018548 0 1 0
865 5 5 0 5.998590426235303 -7.603008083274002 -21.128221167539913 0 1 0
866 5 5 0 7.438587042938838 -7.637825490603104 -21.421496457063576 0 1 0
867 5 5 0 8.135793699165369 -6.36894559915943 -21.319288917510733 0 1 0
868 5 5 0 9.544967811308268 -6.43015580992461 -21.575935831201352 0 1 0
820 5 5 0 5.2810654004622055 -11.36348335549307 -21.21594776408252 0 1 0
860 5 5 0 9.546715789231325 -11.438878755664112 -21.302059010330716 0 1 0
859 5 5 0 8.123171357326022 -11.397297766956983 -21.297783096503956 0 1 0
910 5 5 0 -9.538531037628157 -5.2187099505171135 -21.858936782280644 1 1 0
950 5 5 0 -5.331508525788409 -5.166347189626229 -21.667053411601103 1 1 0
949 5 5 0 -6.737650883447998 -5.182244161528648 -21.555435114557493 1 1 0
911 5 5 0 -8.915609969892973 -3.974121378745714 -21.687691527263627 1 1 0
912 5 5 0 -7.483813445074853 -3.981820484101613 -21.66233931981446 1 1 0
914 5 5 0 -9.492228274065212 -2.71987639032759 -21.75749637750929 1 1 0
915 5 5 0 -8.842051814899635 -1.4979654411708587 -21.476180950488736 1 1 0
916 5 5 0 -7.4124175221176 -1.4636984580629786 -21.55911764628941 1 1 0
918 5 5 0 -9.534127985065233 -0.22751523787439965 -21.518666903262083 1 1 0
951 5 5 0 -4.621160749364768 -3.9339204511437185 -21.4434240593804 1 1 0
953 5 5 0 -6.7555116939729025 -2.728702653771645 -21.36763296911061 1 1 0
954 5 5 0 -5.313751246700843 -2.6781658795460412 -21.520535357537593 1 1 0
955 5 5 0 -4.606434523641667 -1.4637190436690979 -21.369467470142823 1 1 0
957 5 5 0 -6.763660768105709 -0.19768326335648112 -21.326190004351872 1 1 0
958 5 5 0 -5.297443394290584 -0.21043786869471326 -21.589725395079086 1 1 0
917 5 5 0 10.2275777207856 -0.20737546393705486 -21.521747057874155 0 1 0
952 5 5 0 -3.1947391017848474 -3.9426426469704445 -21.47064275904611 1 1 0
956 5 5 0 -3.1817089138862116 -1.502846810309462 -21.529008987163106 1 1 0
829 5 5 0 1.7688004101856318 -5.225007629502656 -21.10820475881756 0 1 0
989 5 5 0 -2.477666791834766 -5.207707869796486 -21.402575790571717 1 1 0
990 5 5 0 -1.0683324147866315 -5.225122364474962 -21.5073707175088 1 1 0
833 5 5 0 1.782346145853646 -2.678109819679344 -21.123729884442124 0 1 0
837 5 5 0 1.7441484627453328 -0.20417861413241312 -21.070836675569232 0 1 0
991 5 5 0 -0.37574809138545007 -4.014096554318595 -21.226756163626707 1 1 0
992 5 5 0 1.0456178979808897 -3.948978448945727 -21.29714860615596 1 1 0
993 5 5 0 -2.473035996270065 -2.7253687293895847 -21.256763591582914 1 1 0
994 5 5 0 -1.0185460827878146 -2.681021033818597 -21.414184733892586 1 1 0
995 5 5 0 -0.3665526068562741 -1.4235588126677143 -21.242958570332252 1 1 0
996 5 5 0 1.0668556211870275 -1.4334001777486165 -21.35262018478312 1 1 0
997 5 5 0 -2.5682944931916314 -0.2222969956151175 -21.335237358409326 1 1 0
998 5 5 0 -1.120579983948872 -0.23154414869297746 -21.26749884909225 1 1 0
830 5 5 0 3.1568012990135106 -5.147967963483743 -21.293221973863492 0 1 0
834 5 5 0 3.2245392621939626 -2.7056638448772787 -21.06038968749398 0 1 0
838 5 5 0 3.165233565219955 -0.18860369715247494 -21.082433809578845 0 1 0
909 5 5 0 10.283517808363815 -5.220709664216926 -21.603598225638134 0 1 0
913 5 5 0 10.284025145155034 -2.739491690094235 -21.73157222930681 0 1 0
831 5 5 0 3.906324700161564 -3.9305975344594515 -21.085843472420287 0 1 0
835 5 5 0 3.8448097876989884 -1.4698018536956 -21.42312932500753 0 1 0
870 5 5 0 7.40327474656959 -5.185190198591897 -21.48316829594769 0 1 0
869 5 5 0 5.997835912305053 -5.188924674435605 -21.177498325283267 0 1 0
832 5 5 0 5.315650129934911 -3.950624419546463 -21.41584842211942 0 1 0
836 5 5 0 5.270214004194399 -1.4787334811589297 -21.586433014598928 0 1 0
871 5 5 0 8.163505436093413 -3.944357840612877 -21.46058305546066 0 1 0
872 5 5 0 9.586130943706923 -3.9882117088547684 -21.654893254472483 0 1 0
873 5 5 0 5.990593302216915 -2.6951030063352306 -21.409668508509217 0 1 0
874 5 5 0 7.4024195199586735 -2.69244391890609 -21.649737793689273 0 1 0
875 5 5 0 8.131376335829934 -1.4280280048282687 -21.613976765416915 0 1 0
876 5 5 0 9.560879610768534 -1.4619774086548247 -21.830851145343587 0 1 0
877 5 5 0 5.9609356301906935 -0.21878091875503536 -21.479236679169308 0 1 0
878 5 5 0 7.396121454216448 -0.20757244328071955 -21.674158914929354 0 1 0
919 5 5 0 -8.849459143256695 1.0243184073913358 -21.338478785536026 1 1 0
959 5 5 0 -4.613253502202987 1.0598175863317056 -21.471354794558916 1 1 0
920 5 5 0 -7.451103824982571 1.0182836648143407 -21.479562198526764 1 1 0
882 5 5 0 -9.544167059214681 2.2801430146243753 -21.426905101213638 1 0 0
883 5 5 0 -8.882505916914155 3.508291803025319 -21.210944687737484 1 0 0
884 5 5 0 -7.472055548803012 3.528403750052135 -21.350696233021715 1 0 0