# System

18522 atoms
18524 bonds
20842 angles
23160 dihedrals
4632 impropers

71 atom types
254 bond types
156 angle types
47 dihedral types
5 improper types
extra bond per atom 2
extra angle per atom 1
extra special per atom 2
-30  30 xlo xhi
-80  80 ylo yhi
-30  30 zlo zhi

Atoms

1	1	22	0.129	11.515	-39.791	-19.8407	
2	1	65	-0.171	10.4278	-39.7909	-19.8405	
3	1	65	-0.092	9.7224	-40.9972	-19.838	
4	1	22	0.121	10.2591	-41.9431	-19.8395	
5	1	65	-0.268	8.3252	-40.9941	-19.8402	
6	1	22	0.142	7.7857	-41.9393	-19.8472	
7	1	65	0.328	7.6043	-39.7908	-19.8417	
8	1	14	-0.515	6.0919	-39.7909	-19.8392	
9	1	22	0.141	5.6917	-39.79	-18.8161	
10	1	22	0.141	5.6918	-38.9045	-20.3437	
11	1	22	0.141	5.6918	-40.678	-20.3424	
12	1	65	-0.268	8.3254	-38.5876	-19.8401	
13	1	22	0.142	7.7858	-37.6424	-19.847	
14	1	65	-0.092	9.7225	-38.5846	-19.8381	
15	1	22	0.121	10.2593	-37.6388	-19.8397	
16	2	22	0.129	-3.3553	-5.9025	20.7255	
17	2	65	-0.171	-4.4425	-5.9024	20.7257	
18	2	65	-0.092	-5.1479	-7.1087	20.7282	
19	2	22	0.121	-4.6112	-8.0546	20.7267	
20	2	65	-0.268	-6.5451	-7.1056	20.726	
21	2	22	0.142	-7.0847	-8.0508	20.719	
22	2	65	0.328	-7.266	-5.9023	20.7245	
23	2	14	-0.515	-8.7784	-5.9024	20.727	
24	2	22	0.141	-9.1786	-5.9015	21.7501	
25	2	22	0.141	-9.1785	-5.0159	20.2225	
26	2	22	0.141	-9.1785	-6.7895	20.2237	
27	2	65	-0.268	-6.545	-4.6991	20.7261	
28	2	22	0.142	-7.0845	-3.7539	20.7192	
29	2	65	-0.092	-5.1478	-4.6961	20.7281	
30	2	22	0.121	-4.611	-3.7502	20.7265	
31	3	22	0.129	5.1854	-61.736	-8.784	
32	3	65	-0.171	4.0982	-61.7359	-8.7838	
33	3	65	-0.092	3.3928	-62.9422	-8.7813	
34	3	22	0.121	3.9294	-63.8881	-8.7828	
35	3	65	-0.268	1.9956	-62.939	-8.7835	
36	3	22	0.142	1.456	-63.8842	-8.7905	
37	3	65	0.328	1.2747	-61.7357	-8.785	
38	3	14	-0.515	-0.23777	-61.7358	-8.7825	
39	3	22	0.141	-0.63797	-61.735	-7.7594	
40	3	22	0.141	-0.63784	-60.8494	-9.287	
41	3	22	0.141	-0.63785	-62.6229	-9.2857	
42	3	65	-0.268	1.9957	-60.5325	-8.7834	
43	3	22	0.142	1.4561	-59.5873	-8.7903	
44	3	65	-0.092	3.3929	-60.5295	-8.7814	
45	3	22	0.121	3.9297	-59.5837	-8.783	
46	4	22	0.129	28.8661	-12.3484	-7.8639	
47	4	65	-0.171	27.7789	-12.3484	-7.8636	
48	4	65	-0.092	27.0735	-13.5546	-7.8612	
49	4	22	0.121	27.6102	-14.5005	-7.8627	
50	4	65	-0.268	25.6763	-13.5515	-7.8633	
51	4	22	0.142	25.1367	-14.4967	-7.8703	
52	4	65	0.328	24.9554	-12.3482	-7.8649	
53	4	14	-0.515	23.4429	-12.3483	-7.8624	
54	4	22	0.141	23.0428	-12.3475	-6.8393	
55	4	22	0.141	23.0429	-11.4619	-8.3668	
56	4	22	0.141	23.0429	-13.2354	-8.3656	
57	4	65	-0.268	25.6764	-11.145	-7.8633	
58	4	22	0.142	25.1369	-10.1998	-7.8702	
59	4	65	-0.092	27.0736	-11.142	-7.8612	
60	4	22	0.121	27.6104	-10.1962	-7.8628	
61	5	22	0.129	24.2421	42.8546	-8.987	
62	5	65	-0.171	23.1549	42.8547	-8.9867	
63	5	65	-0.092	22.4495	41.6484	-8.9843	
64	5	22	0.121	22.9862	40.7025	-8.9858	
65	5	65	-0.268	21.0523	41.6515	-8.9864	
66	5	22	0.142	20.5128	40.7063	-8.9934	
67	5	65	0.328	20.3314	42.8548	-8.988	
68	5	14	-0.515	18.819	42.8547	-8.9855	
69	5	22	0.141	18.4188	42.8556	-7.9624	
70	5	22	0.141	18.4189	43.7412	-9.4899	
71	5	22	0.141	18.4189	41.9676	-9.4887	
72	5	65	-0.268	21.0525	44.058	-8.9864	
73	5	22	0.142	20.5129	45.0032	-8.9933	
74	5	65	-0.092	22.4497	44.061	-8.9843	
75	5	22	0.121	22.9864	45.0069	-8.9859	
76	6	22	0.129	19.7723	-65.0204	5.4151	
77	6	65	-0.171	18.6851	-65.0204	5.4154	
78	6	65	-0.092	17.9797	-66.2266	5.4178	
79	6	22	0.121	18.5164	-67.1725	5.4164	
80	6	65	-0.268	16.5825	-66.2235	5.4157	
81	6	22	0.142	16.0429	-67.1687	5.4087	
82	6	65	0.328	15.8616	-65.0202	5.4141	
83	6	14	-0.515	14.3492	-65.0203	5.4166	
84	6	22	0.141	13.949	-65.0195	6.4397	
85	6	22	0.141	13.9491	-64.1339	4.9122	
86	6	22	0.141	13.9491	-65.9074	4.9134	
87	6	65	-0.268	16.5826	-63.817	5.4157	
88	6	22	0.142	16.0431	-62.8718	5.4088	
89	6	65	-0.092	17.9798	-63.814	5.4178	
90	6	22	0.121	18.5166	-62.8682	5.4162	
91	7	22	0.129	-17.3174	63.0175	-17.4907	
92	7	65	-0.171	-18.4046	63.0175	-17.4904	
93	7	65	-0.092	-19.11	61.8113	-17.4879	
94	7	22	0.121	-18.5733	60.8654	-17.4894	
95	7	65	-0.268	-20.5072	61.8144	-17.4901	
96	7	22	0.142	-21.0467	60.8692	-17.4971	
97	7	65	0.328	-21.2281	63.0177	-17.4917	
98	7	14	-0.515	-22.7405	63.0176	-17.4891	
99	7	22	0.141	-23.1407	63.0184	-16.466	
100	7	22	0.141	-23.1406	63.904	-17.9936	
101	7	22	0.141	-23.1406	62.1305	-17.9924	
102	7	65	-0.268	-20.507	64.2209	-17.4901	
103	7	22	0.142	-21.0466	65.1661	-17.4969	
104	7	65	-0.092	-19.1099	64.2239	-17.488	
105	7	22	0.121	-18.5731	65.1697	-17.4896	
106	8	22	0.129	-2.33	8.7376	-5.2418	
107	8	65	-0.171	-3.4172	8.7377	-5.2416	
108	8	65	-0.092	-4.1226	7.5314	-5.2391	
109	8	22	0.121	-3.5859	6.5855	-5.2406	
110	8	65	-0.268	-5.5198	7.5345	-5.2413	
111	8	22	0.142	-6.0594	6.5894	-5.2483	
112	8	65	0.328	-6.2407	8.7378	-5.2428	
113	8	14	-0.515	-7.7531	8.7378	-5.2403	
114	8	22	0.141	-8.1533	8.7386	-4.2172	
115	8	22	0.141	-8.1532	9.6242	-5.7448	
116	8	22	0.141	-8.1532	7.8507	-5.7435	
117	8	65	-0.268	-5.5197	9.941	-5.2412	
118	8	22	0.142	-6.0592	10.8862	-5.2481	
119	8	65	-0.092	-4.1225	9.9441	-5.2392	
120	8	22	0.121	-3.5857	10.8899	-5.2408	
121	9	22	0.129	-10.6708	38.2264	-17.6137	
122	9	65	-0.171	-11.758	38.2265	-17.6134	
123	9	65	-0.092	-12.4634	37.0202	-17.611	
124	9	22	0.121	-11.9268	36.0743	-17.6125	
125	9	65	-0.268	-13.8606	37.0233	-17.6131	
126	9	22	0.142	-14.4002	36.0781	-17.6201	
127	9	65	0.328	-14.5815	38.2266	-17.6147	
128	9	14	-0.515	-16.094	38.2265	-17.6122	
129	9	22	0.141	-16.4942	38.2274	-16.5891	
130	9	22	0.141	-16.494	39.113	-18.1166	
131	9	22	0.141	-16.4941	37.3394	-18.1154	
132	9	65	-0.268	-13.8605	39.4298	-17.6131	
133	9	22	0.142	-14.4001	40.375	-17.62	
134	9	65	-0.092	-12.4633	39.4328	-17.611	
135	9	22	0.121	-11.9265	40.3787	-17.6126	
136	10	22	0.129	10.0664	63.4917	-5.3703	
137	10	65	-0.171	8.9792	63.4918	-5.37	
138	10	65	-0.092	8.2738	62.2855	-5.3675	
139	10	22	0.121	8.8105	61.3396	-5.369	
140	10	65	-0.268	6.8766	62.2886	-5.3697	
141	10	22	0.142	6.3371	61.3435	-5.3767	
142	10	65	0.328	6.1557	63.4919	-5.3713	
143	10	14	-0.515	4.6433	63.4919	-5.3687	
144	10	22	0.141	4.2431	63.4927	-4.3456	
145	10	22	0.141	4.2432	64.3783	-5.8732	
146	10	22	0.141	4.2432	62.6048	-5.872	
147	10	65	-0.268	6.8768	64.6952	-5.3696	
148	10	22	0.142	6.3372	65.6403	-5.3765	
149	10	65	-0.092	8.2739	64.6982	-5.3676	
150	10	22	0.121	8.8107	65.644	-5.3692	
151	11	22	0.129	-25.2104	0.59623	-28.6351	
152	11	65	-0.171	-26.2976	0.59632	-28.6348	
153	11	65	-0.092	-27.0029	-0.60997	-28.6323	
154	11	22	0.121	-26.4663	-1.5559	-28.6338	
155	11	65	-0.268	-28.4001	-0.60684	-28.6345	
156	11	22	0.142	-28.9397	-1.552	-28.6415	
157	11	65	0.328	-29.121	0.59645	-28.6361	
158	11	14	-0.515	-30.6335	0.59637	-28.6335	
159	11	22	0.141	-31.0337	0.59722	-27.6104	
160	11	22	0.141	-31.0336	1.4828	-29.138	
161	11	22	0.141	-31.0336	-0.29072	-29.1368	
162	11	65	-0.268	-28.4	1.7997	-28.6344	
163	11	22	0.142	-28.9396	2.7449	-28.6413	
164	11	65	-0.092	-27.0028	1.8027	-28.6324	
165	11	22	0.121	-26.4661	2.7485	-28.634	
166	12	22	0.129	-11.2562	-47.9029	19.7968	
167	12	65	-0.171	-12.3434	-47.9028	19.7971	
168	12	65	-0.092	-13.0488	-49.1091	19.7995	
169	12	22	0.121	-12.5121	-50.055	19.7981	
170	12	65	-0.268	-14.446	-49.1059	19.7974	
171	12	22	0.142	-14.9856	-50.0511	19.7904	
172	12	65	0.328	-15.1669	-47.9026	19.7958	
173	12	14	-0.515	-16.6793	-47.9027	19.7983	
174	12	22	0.141	-17.0795	-47.9019	20.8214	
175	12	22	0.141	-17.0794	-47.0163	19.2939	
176	12	22	0.141	-17.0794	-48.7898	19.2951	
177	12	65	-0.268	-14.4459	-46.6994	19.7974	
178	12	22	0.142	-14.9854	-45.7542	19.7905	
179	12	65	-0.092	-13.0487	-46.6964	19.7995	
180	12	22	0.121	-12.5119	-45.7506	19.7979	
181	13	22	0.129	-1.2569	-43.4755	18.5127	
182	13	65	-0.171	-2.3441	-43.4754	18.513	
183	13	65	-0.092	-3.0494	-44.6817	18.5154	
184	13	22	0.121	-2.5128	-45.6276	18.5139	
185	13	65	-0.268	-4.4466	-44.6786	18.5133	
186	13	22	0.142	-4.9862	-45.6237	18.5063	
187	13	65	0.328	-5.1675	-43.4753	18.5117	
188	13	14	-0.515	-6.68	-43.4754	18.5142	
189	13	22	0.141	-7.0802	-43.4745	19.5373	
190	13	22	0.141	-7.0801	-42.5889	18.0098	
191	13	22	0.141	-7.0801	-44.3625	18.011	
192	13	65	-0.268	-4.4465	-42.2721	18.5133	
193	13	22	0.142	-4.9861	-41.3269	18.5064	
194	13	65	-0.092	-3.0493	-42.2691	18.5154	
195	13	22	0.121	-2.5126	-41.3232	18.5138	
196	14	22	0.129	10.9391	-38.1906	-28.9866	
197	14	65	-0.171	9.8519	-38.1905	-28.9863	
198	14	65	-0.092	9.1465	-39.3968	-28.9838	
199	14	22	0.121	9.6832	-40.3427	-28.9853	
200	14	65	-0.268	7.7493	-39.3937	-28.986	
201	14	22	0.142	7.2097	-40.3388	-28.993	
202	14	65	0.328	7.0284	-38.1904	-28.9876	
203	14	14	-0.515	5.5159	-38.1905	-28.985	
204	14	22	0.141	5.1158	-38.1896	-27.9619	
205	14	22	0.141	5.1159	-37.304	-29.4895	
206	14	22	0.141	5.1159	-39.0775	-29.4883	
207	14	65	-0.268	7.7494	-36.9872	-28.986	
208	14	22	0.142	7.2099	-36.042	-28.9928	
209	14	65	-0.092	9.1466	-36.9842	-28.9839	
210	14	22	0.121	9.6834	-36.0383	-28.9855	
211	15	22	0.129	-6.4363	-18.7899	18.4166	
212	15	65	-0.171	-7.5235	-18.7898	18.4168	
213	15	65	-0.092	-8.2289	-19.9961	18.4193	
214	15	22	0.121	-7.6922	-20.9419	18.4178	
215	15	65	-0.268	-9.6261	-19.9929	18.4171	
216	15	22	0.142	-10.1656	-20.9381	18.4101	
217	15	65	0.328	-10.347	-18.7896	18.4156	
218	15	14	-0.515	-11.8594	-18.7897	18.4181	
219	15	22	0.141	-12.2596	-18.7889	19.4412	
220	15	22	0.141	-12.2595	-17.9033	17.9136	
221	15	22	0.141	-12.2595	-19.6768	17.9149	
222	15	65	-0.268	-9.6259	-17.5864	18.4172	
223	15	22	0.142	-10.1655	-16.6412	18.4103	
224	15	65	-0.092	-8.2288	-17.5834	18.4192	
225	15	22	0.121	-7.692	-16.6376	18.4176	
226	16	22	0.129	4.9506	-45.4933	8.5643	
227	16	65	-0.171	3.8634	-45.4933	8.5645	
228	16	65	-0.092	3.158	-46.6995	8.567	
229	16	22	0.121	3.6947	-47.6454	8.5655	
230	16	65	-0.268	1.7608	-46.6964	8.5648	
231	16	22	0.142	1.2213	-47.6416	8.5578	
232	16	65	0.328	1.0399	-45.4931	8.5633	
233	16	14	-0.515	-0.47251	-45.4932	8.5658	
234	16	22	0.141	-0.87271	-45.4924	9.5889	
235	16	22	0.141	-0.87258	-44.6068	8.0613	
236	16	22	0.141	-0.87259	-46.3803	8.0626	
237	16	65	-0.268	1.761	-44.2899	8.5649	
238	16	22	0.142	1.2214	-43.3447	8.558	
239	16	65	-0.092	3.1581	-44.2869	8.5669	
240	16	22	0.121	3.6949	-43.3411	8.5653	
241	17	22	0.129	-16.7104	-41.735	-5.9839	
242	17	65	-0.171	-17.7976	-41.735	-5.9837	
243	17	65	-0.092	-18.503	-42.9413	-5.9812	
244	17	22	0.121	-17.9663	-43.8871	-5.9827	
245	17	65	-0.268	-19.9002	-42.9381	-5.9834	
246	17	22	0.142	-20.4397	-43.8833	-5.9904	
247	17	65	0.328	-20.6211	-41.7348	-5.9849	
248	17	14	-0.515	-22.1335	-41.7349	-5.9824	
249	17	22	0.141	-22.5337	-41.7341	-4.9593	
250	17	22	0.141	-22.5336	-40.8485	-6.4869	
251	17	22	0.141	-22.5336	-42.622	-6.4856	
252	17	65	-0.268	-19.9	-40.5316	-5.9833	
253	17	22	0.142	-20.4396	-39.5864	-5.9902	
254	17	65	-0.092	-18.5029	-40.5286	-5.9813	
255	17	22	0.121	-17.9661	-39.5828	-5.9828	
256	18	22	0.129	-26.7405	12.5971	-20.2924	
257	18	65	-0.171	-27.8277	12.5971	-20.2921	
258	18	65	-0.092	-28.5331	11.3909	-20.2896	
259	18	22	0.121	-27.9964	10.445	-20.2911	
260	18	65	-0.268	-29.9303	11.394	-20.2918	
261	18	22	0.142	-30.4698	10.4488	-20.2988	
262	18	65	0.328	-30.6512	12.5973	-20.2934	
263	18	14	-0.515	-32.1636	12.5972	-20.2908	
264	18	22	0.141	-32.5638	12.598	-19.2677	
265	18	22	0.141	-32.5637	13.4836	-20.7953	
266	18	22	0.141	-32.5637	11.7101	-20.7941	
267	18	65	-0.268	-29.9301	13.8005	-20.2917	
268	18	22	0.142	-30.4697	14.7457	-20.2986	
269	18	65	-0.092	-28.533	13.8035	-20.2897	
270	18	22	0.121	-27.9962	14.7493	-20.2913	
271	19	22	0.129	3.9823	4.7743	16.3198	
272	19	65	-0.171	2.8951	4.7743	16.32	
273	19	65	-0.092	2.1897	3.5681	16.3225	
274	19	22	0.121	2.7264	2.6222	16.321	
275	19	65	-0.268	0.79252	3.5712	16.3203	
276	19	22	0.142	0.25294	2.626	16.3133	
277	19	65	0.328	0.071625	4.7745	16.3188	
278	19	14	-0.515	-1.4408	4.7744	16.3213	
279	19	22	0.141	-1.841	4.7752	17.3444	
280	19	22	0.141	-1.8409	5.6608	15.8168	
281	19	22	0.141	-1.8409	3.8873	15.8181	
282	19	65	-0.268	0.79264	5.9777	16.3204	
283	19	22	0.142	0.25309	6.9229	16.3135	
284	19	65	-0.092	2.1898	5.9807	16.3224	
285	19	22	0.121	2.7266	6.9265	16.3208	
286	20	22	0.129	-3.2055	-56.314	11.9593	
287	20	65	-0.171	-4.2927	-56.3139	11.9596	
288	20	65	-0.092	-4.9981	-57.5202	11.962	
289	20	22	0.121	-4.4614	-58.4661	11.9605	
290	20	65	-0.268	-6.3953	-57.517	11.9599	
291	20	22	0.142	-6.9349	-58.4622	11.9529	
292	20	65	0.328	-7.1162	-56.3138	11.9583	
293	20	14	-0.515	-8.6286	-56.3138	11.9608	
294	20	22	0.141	-9.0288	-56.313	12.9839	
295	20	22	0.141	-9.0287	-55.4274	11.4564	
296	20	22	0.141	-9.0287	-57.2009	11.4576	
297	20	65	-0.268	-6.3952	-55.1105	11.9599	
298	20	22	0.142	-6.9347	-54.1653	11.953	
299	20	65	-0.092	-4.998	-55.1075	11.962	
300	20	22	0.121	-4.4612	-54.1617	11.9604	
301	21	22	0.129	1.7984	63.5409	-20.8365	
302	21	65	-0.171	0.71117	63.541	-20.8362	
303	21	65	-0.092	0.0057893	62.3347	-20.8338	
304	21	22	0.121	0.54245	61.3888	-20.8352	
305	21	65	-0.268	-1.3914	62.3378	-20.8359	
306	21	22	0.142	-1.931	61.3927	-20.8429	
307	21	65	0.328	-2.1123	63.5411	-20.8375	
308	21	14	-0.515	-3.6248	63.541	-20.835	
309	21	22	0.141	-4.025	63.5419	-19.8119	
310	21	22	0.141	-4.0248	64.4275	-21.3394	
311	21	22	0.141	-4.0248	62.6539	-21.3382	
312	21	65	-0.268	-1.3913	64.7443	-20.8359	
313	21	22	0.142	-1.9308	65.6895	-20.8428	
314	21	65	-0.092	0.0058948	64.7473	-20.8338	
315	21	22	0.121	0.54267	65.6932	-20.8354	
316	22	22	0.129	-25.689	43.4332	-23.7426	
317	22	65	-0.171	-26.7762	43.4333	-23.7423	
318	22	65	-0.092	-27.4816	42.227	-23.7399	
319	22	22	0.121	-26.9449	41.2811	-23.7414	
320	22	65	-0.268	-28.8788	42.2301	-23.742	
321	22	22	0.142	-29.4184	41.285	-23.749	
322	22	65	0.328	-29.5997	43.4334	-23.7436	
323	22	14	-0.515	-31.1122	43.4334	-23.7411	
324	22	22	0.141	-31.5124	43.4342	-22.718	
325	22	22	0.141	-31.5122	44.3198	-24.2455	
326	22	22	0.141	-31.5122	42.5463	-24.2443	
327	22	65	-0.268	-28.8787	44.6367	-23.742	
328	22	22	0.142	-29.4182	45.5818	-23.7489	
329	22	65	-0.092	-27.4815	44.6397	-23.7399	
330	22	22	0.121	-26.9447	45.5855	-23.7415	
331	23	22	0.129	3.027	-66.7543	-0.17736	
332	23	65	-0.171	1.9398	-66.7542	-0.17711	
333	23	65	-0.092	1.2344	-67.9605	-0.17464	
334	23	22	0.121	1.7711	-68.9064	-0.17613	
335	23	65	-0.268	-0.16277	-67.9574	-0.17682	
336	23	22	0.142	-0.70235	-68.9026	-0.18382	
337	23	65	0.328	-0.88366	-66.7541	-0.17837	
338	23	14	-0.515	-2.3961	-66.7542	-0.17583	
339	23	22	0.141	-2.7963	-66.7533	0.84726	
340	23	22	0.141	-2.7962	-65.8677	-0.68032	
341	23	22	0.141	-2.7962	-67.6413	-0.67907	
342	23	65	-0.268	-0.16265	-65.5509	-0.17675	
343	23	22	0.142	-0.7022	-64.6057	-0.18364	
344	23	65	-0.092	1.2345	-65.5479	-0.17471	
345	23	22	0.121	1.7713	-64.602	-0.1763	
346	24	22	0.129	24.448	-59.7507	-8.5493	
347	24	65	-0.171	23.3608	-59.7506	-8.549	
348	24	65	-0.092	22.6554	-60.9569	-8.5466	
349	24	22	0.121	23.192	-61.9027	-8.5481	
350	24	65	-0.268	21.2582	-60.9537	-8.5488	
351	24	22	0.142	20.7186	-61.8989	-8.5558	
352	24	65	0.328	20.5373	-59.7504	-8.5503	
353	24	14	-0.515	19.0248	-59.7505	-8.5478	
354	24	22	0.141	18.6246	-59.7497	-7.5247	
355	24	22	0.141	18.6248	-58.8641	-9.0523	
356	24	22	0.141	18.6247	-60.6376	-9.051	
357	24	65	-0.268	21.2583	-58.5472	-8.5487	
358	24	22	0.142	20.7187	-57.602	-8.5556	
359	24	65	-0.092	22.6555	-58.5442	-8.5467	
360	24	22	0.121	23.1923	-57.5984	-8.5482	
361	25	22	0.129	-1.3364	-70.9514	8.1428	
362	25	65	-0.171	-2.4236	-70.9513	8.1431	
363	25	65	-0.092	-3.129	-72.1576	8.1455	
364	25	22	0.121	-2.5924	-73.1035	8.144	
365	25	65	-0.268	-4.5262	-72.1544	8.1434	
366	25	22	0.142	-5.0658	-73.0996	8.1364	
367	25	65	0.328	-5.2471	-70.9512	8.1418	
368	25	14	-0.515	-6.7596	-70.9512	8.1443	
369	25	22	0.141	-7.1598	-70.9504	9.1674	
370	25	22	0.141	-7.1596	-70.0648	7.6399	
371	25	22	0.141	-7.1596	-71.8383	7.6411	
372	25	65	-0.268	-4.5261	-69.7479	8.1434	
373	25	22	0.142	-5.0657	-68.8027	8.1365	
374	25	65	-0.092	-3.1289	-69.7449	8.1455	
375	25	22	0.121	-2.5921	-68.7991	8.1439	
376	26	22	0.129	-6.724	-31.3759	-12.0049	
377	26	65	-0.171	-7.8112	-31.3758	-12.0047	
378	26	65	-0.092	-8.5166	-32.5821	-12.0022	
379	26	22	0.121	-7.9799	-33.528	-12.0037	
380	26	65	-0.268	-9.9138	-32.5789	-12.0044	
381	26	22	0.142	-10.4533	-33.5241	-12.0114	
382	26	65	0.328	-10.6347	-31.3756	-12.006	
383	26	14	-0.515	-12.1471	-31.3757	-12.0034	
384	26	22	0.141	-12.5473	-31.3749	-10.9803	
385	26	22	0.141	-12.5472	-30.4893	-12.5079	
386	26	22	0.141	-12.5472	-32.2628	-12.5067	
387	26	65	-0.268	-9.9136	-30.1724	-12.0043	
388	26	22	0.142	-10.4532	-29.2272	-12.0112	
389	26	65	-0.092	-8.5165	-30.1694	-12.0023	
390	26	22	0.121	-7.9797	-29.2236	-12.0039	
391	27	22	0.129	-13.7462	-10.5577	-23.8714	
392	27	65	-0.171	-14.8334	-10.5576	-23.8711	
393	27	65	-0.092	-15.5388	-11.7639	-23.8686	
394	27	22	0.121	-15.0021	-12.7098	-23.8701	
395	27	65	-0.268	-16.936	-11.7607	-23.8708	
396	27	22	0.142	-17.4755	-12.7059	-23.8778	
397	27	65	0.328	-17.6569	-10.5574	-23.8724	
398	27	14	-0.515	-19.1693	-10.5575	-23.8698	
399	27	22	0.141	-19.5695	-10.5567	-22.8467	
400	27	22	0.141	-19.5694	-9.6711	-24.3743	
401	27	22	0.141	-19.5694	-11.4446	-24.3731	
402	27	65	-0.268	-16.9358	-9.3542	-23.8708	
403	27	22	0.142	-17.4754	-8.409	-23.8776	
404	27	65	-0.092	-15.5387	-9.3512	-23.8687	
405	27	22	0.121	-15.0019	-8.4054	-23.8703	
406	28	22	0.129	5.1052	7.0943	0.97182	
407	28	65	-0.171	4.018	7.0943	0.97207	
408	28	65	-0.092	3.3126	5.8881	0.97455	
409	28	22	0.121	3.8492	4.9422	0.97306	
410	28	65	-0.268	1.9154	5.8912	0.97237	
411	28	22	0.142	1.3758	4.946	0.96536	
412	28	65	0.328	1.1945	7.0945	0.97082	
413	28	14	-0.515	-0.31797	7.0944	0.97335	
414	28	22	0.141	-0.71816	7.0952	1.9964	
415	28	22	0.141	-0.71804	7.9808	0.46887	
416	28	22	0.141	-0.71805	6.2073	0.47011	
417	28	65	-0.268	1.9155	8.2977	0.97243	
418	28	22	0.142	1.376	9.2429	0.96555	
419	28	65	-0.092	3.3127	8.3007	0.97447	
420	28	22	0.121	3.8495	9.2465	0.97288	
421	29	22	0.129	31.0022	37.7882	9.1611	
422	29	65	-0.171	29.915	37.7882	9.1614	
423	29	65	-0.092	29.2096	36.582	9.1638	
424	29	22	0.121	29.7462	35.6361	9.1623	
425	29	65	-0.268	27.8124	36.5851	9.1617	
426	29	22	0.142	27.2728	35.6399	9.1547	
427	29	65	0.328	27.0915	37.7884	9.1601	
428	29	14	-0.515	25.579	37.7883	9.1626	
429	29	22	0.141	25.1788	37.7892	10.1857	
430	29	22	0.141	25.179	38.6747	8.6582	
431	29	22	0.141	25.1789	36.9012	8.6594	
432	29	65	-0.268	27.8125	38.9916	9.1617	
433	29	22	0.142	27.2729	39.9368	9.1548	
434	29	65	-0.092	29.2097	38.9946	9.1638	
435	29	22	0.121	29.7465	39.9404	9.1622	
436	30	22	0.129	-5.0786	-34.4591	27.5961	
437	30	65	-0.171	-6.1658	-34.459	27.5964	
438	30	65	-0.092	-6.8712	-35.6653	27.5988	
439	30	22	0.121	-6.3345	-36.6112	27.5974	
440	30	65	-0.268	-8.2684	-35.6621	27.5967	
441	30	22	0.142	-8.8079	-36.6073	27.5897	
442	30	65	0.328	-8.9893	-34.4589	27.5951	
443	30	14	-0.515	-10.5017	-34.4589	27.5976	
444	30	22	0.141	-10.9019	-34.4581	28.6207	
445	30	22	0.141	-10.9018	-33.5725	27.0932	
446	30	22	0.141	-10.9018	-35.346	27.0944	
447	30	65	-0.268	-8.2682	-33.2556	27.5967	
448	30	22	0.142	-8.8078	-32.3104	27.5898	
449	30	65	-0.092	-6.8711	-33.2526	27.5988	
450	30	22	0.121	-6.3343	-32.3068	27.5972	
451	31	22	0.129	17.612	-49.2006	-15.8076	
452	31	65	-0.171	16.5248	-49.2005	-15.8073	
453	31	65	-0.092	15.8195	-50.4068	-15.8049	
454	31	22	0.121	16.3561	-51.3527	-15.8064	
455	31	65	-0.268	14.4223	-50.4037	-15.807	
456	31	22	0.142	13.8827	-51.3489	-15.814	
457	31	65	0.328	13.7014	-49.2004	-15.8086	
458	31	14	-0.515	12.1889	-49.2005	-15.8061	
459	31	22	0.141	11.7887	-49.1996	-14.783	
460	31	22	0.141	11.7888	-48.314	-16.3105	
461	31	22	0.141	11.7888	-50.0876	-16.3093	
462	31	65	-0.268	14.4224	-47.9972	-15.807	
463	31	22	0.142	13.8828	-47.052	-15.8139	
464	31	65	-0.092	15.8196	-47.9942	-15.8049	
465	31	22	0.121	16.3563	-47.0483	-15.8065	
466	32	22	0.129	4.501	-49.0266	21.3092	
467	32	65	-0.171	3.4138	-49.0265	21.3095	
468	32	65	-0.092	2.7084	-50.2328	21.3119	
469	32	22	0.121	3.245	-51.1787	21.3105	
470	32	65	-0.268	1.3112	-50.2296	21.3098	
471	32	22	0.142	0.77159	-51.1748	21.3028	
472	32	65	0.328	0.59027	-49.0263	21.3082	
473	32	14	-0.515	-0.92218	-49.0264	21.3107	
474	32	22	0.141	-1.3224	-49.0256	22.3338	
475	32	22	0.141	-1.3223	-48.14	20.8063	
476	32	22	0.141	-1.3223	-49.9135	20.8075	
477	32	65	-0.268	1.3113	-47.8231	21.3098	
478	32	22	0.142	0.77174	-46.8779	21.3029	
479	32	65	-0.092	2.7085	-47.8201	21.3119	
480	32	22	0.121	3.2452	-46.8743	21.3103	
481	33	22	0.129	16.3218	14.2995	-7.3714	
482	33	65	-0.171	15.2346	14.2996	-7.3712	
483	33	65	-0.092	14.5292	13.0933	-7.3687	
484	33	22	0.121	15.0659	12.1474	-7.3702	
485	33	65	-0.268	13.132	13.0964	-7.3709	
486	33	22	0.142	12.5925	12.1512	-7.3779	
487	33	65	0.328	12.4111	14.2997	-7.3724	
488	33	14	-0.515	10.8987	14.2996	-7.3699	
489	33	22	0.141	10.4985	14.3005	-6.3468	
490	33	22	0.141	10.4986	15.186	-7.8744	
491	33	22	0.141	10.4986	13.4125	-7.8731	
492	33	65	-0.268	13.1322	15.5029	-7.3708	
493	33	22	0.142	12.5926	16.4481	-7.3777	
494	33	65	-0.092	14.5293	15.5059	-7.3688	
495	33	22	0.121	15.0661	16.4517	-7.3703	
496	34	22	0.129	4.8466	-30.5829	22.1731	
497	34	65	-0.171	3.7594	-30.5828	22.1734	
498	34	65	-0.092	3.0541	-31.7891	22.1758	
499	34	22	0.121	3.5907	-32.735	22.1743	
500	34	65	-0.268	1.6569	-31.786	22.1736	
501	34	22	0.142	1.1173	-32.7312	22.1666	
502	34	65	0.328	0.93597	-30.5827	22.1721	
503	34	14	-0.515	-0.57649	-30.5828	22.1746	
504	34	22	0.141	-0.97668	-30.5819	23.1977	
505	34	22	0.141	-0.97656	-29.6963	21.6701	
506	34	22	0.141	-0.97657	-31.4699	21.6714	
507	34	65	-0.268	1.657	-29.3795	22.1737	
508	34	22	0.142	1.1174	-28.4343	22.1668	
509	34	65	-0.092	3.0542	-29.3765	22.1758	
510	34	22	0.121	3.5909	-28.4306	22.1742	
511	35	22	0.129	3.9594	-54.4917	-21.8057	
512	35	65	-0.171	2.8722	-54.4917	-21.8055	
513	35	65	-0.092	2.1668	-55.6979	-21.803	
514	35	22	0.121	2.7035	-56.6438	-21.8045	
515	35	65	-0.268	0.7696	-55.6948	-21.8052	
516	35	22	0.142	0.23002	-56.64	-21.8122	
517	35	65	0.328	0.048704	-54.4915	-21.8067	
518	35	14	-0.515	-1.4638	-54.4916	-21.8042	
519	35	22	0.141	-1.8639	-54.4908	-20.7811	
520	35	22	0.141	-1.8638	-53.6052	-22.3087	
521	35	22	0.141	-1.8638	-55.3787	-22.3074	
522	35	65	-0.268	0.76972	-53.2883	-21.8051	
523	35	22	0.142	0.23017	-52.3431	-21.812	
524	35	65	-0.092	2.1669	-53.2853	-21.8031	
525	35	22	0.121	2.7037	-52.3395	-21.8047	
526	36	22	0.129	19.5992	66.5917	9.6352	
527	36	65	-0.171	18.512	66.5918	9.6354	
528	36	65	-0.092	17.8066	65.3855	9.6379	
529	36	22	0.121	18.3432	64.4396	9.6364	
530	36	65	-0.268	16.4094	65.3886	9.6357	
531	36	22	0.142	15.8698	64.4434	9.6287	
532	36	65	0.328	15.6885	66.5919	9.6342	
533	36	14	-0.515	14.176	66.5918	9.6367	
534	36	22	0.141	13.7758	66.5927	10.6598	
535	36	22	0.141	13.776	67.4783	9.1322	
536	36	22	0.141	13.7759	65.7047	9.1335	
537	36	65	-0.268	16.4095	67.7951	9.6358	
538	36	22	0.142	15.8699	68.7403	9.6289	
539	36	65	-0.092	17.8067	67.7981	9.6378	
540	36	22	0.121	18.3435	68.744	9.6362	
541	37	22	0.129	-9.6995	24.5388	20.609	
542	37	65	-0.171	-10.7867	24.5389	20.6093	
543	37	65	-0.092	-11.4921	23.3326	20.6118	
544	37	22	0.121	-10.9554	22.3867	20.6103	
545	37	65	-0.268	-12.8893	23.3357	20.6096	
546	37	22	0.142	-13.4289	22.3905	20.6026	
547	37	65	0.328	-13.6102	24.539	20.608	
548	37	14	-0.515	-15.1226	24.5389	20.6106	
549	37	22	0.141	-15.5228	24.5398	21.6337	
550	37	22	0.141	-15.5227	25.4254	20.1061	
551	37	22	0.141	-15.5227	23.6518	20.1073	
552	37	65	-0.268	-12.8892	25.7422	20.6097	
553	37	22	0.142	-13.4287	26.6874	20.6028	
554	37	65	-0.092	-11.492	25.7452	20.6117	
555	37	22	0.121	-10.9552	26.6911	20.6101	
556	38	22	0.129	3.8836	-50.6933	14.7906	
557	38	65	-0.171	2.7964	-50.6932	14.7908	
558	38	65	-0.092	2.091	-51.8995	14.7933	
559	38	22	0.121	2.6277	-52.8454	14.7918	
560	38	65	-0.268	0.69382	-51.8964	14.7911	
561	38	22	0.142	0.15424	-52.8416	14.7841	
562	38	65	0.328	-0.027075	-50.6931	14.7896	
563	38	14	-0.515	-1.5395	-50.6932	14.7921	
564	38	22	0.141	-1.9397	-50.6923	15.8152	
565	38	22	0.141	-1.9396	-49.8067	14.2876	
566	38	22	0.141	-1.9396	-51.5803	14.2889	
567	38	65	-0.268	0.69394	-49.4899	14.7912	
568	38	22	0.142	0.15439	-48.5447	14.7843	
569	38	65	-0.092	2.0911	-49.4869	14.7932	
570	38	22	0.121	2.6279	-48.541	14.7916	
571	39	22	0.129	28.7089	-50.0538	-8.5778	
572	39	65	-0.171	27.6217	-50.0537	-8.5776	
573	39	65	-0.092	26.9163	-51.26	-8.5751	
574	39	22	0.121	27.453	-52.2059	-8.5766	
575	39	65	-0.268	25.5191	-51.2568	-8.5773	
576	39	22	0.142	24.9796	-52.202	-8.5843	
577	39	65	0.328	24.7982	-50.0535	-8.5788	
578	39	14	-0.515	23.2858	-50.0536	-8.5763	
579	39	22	0.141	22.8856	-50.0528	-7.5532	
580	39	22	0.141	22.8857	-49.1672	-9.0808	
581	39	22	0.141	22.8857	-50.9407	-9.0796	
582	39	65	-0.268	25.5193	-48.8503	-8.5772	
583	39	22	0.142	24.9797	-47.9051	-8.5841	
584	39	65	-0.092	26.9164	-48.8473	-8.5752	
585	39	22	0.121	27.4532	-47.9015	-8.5768	
586	40	22	0.129	15.9176	-24.3228	2.4932	
587	40	65	-0.171	14.8304	-24.3228	2.4934	
588	40	65	-0.092	14.125	-25.529	2.4959	
589	40	22	0.121	14.6617	-26.4749	2.4944	
590	40	65	-0.268	12.7278	-25.5259	2.4937	
591	40	22	0.142	12.1883	-26.4711	2.4867	
592	40	65	0.328	12.0069	-24.3226	2.4922	
593	40	14	-0.515	10.4945	-24.3227	2.4947	
594	40	22	0.141	10.0943	-24.3219	3.5178	
595	40	22	0.141	10.0944	-23.4363	1.9902	
596	40	22	0.141	10.0944	-25.2098	1.9915	
597	40	65	-0.268	12.7279	-23.1194	2.4938	
598	40	22	0.142	12.1884	-22.1742	2.4869	
599	40	65	-0.092	14.1251	-23.1164	2.4958	
600	40	22	0.121	14.6619	-22.1706	2.4942	
601	41	22	0.129	-13.2037	27.2661	-23.8447	
602	41	65	-0.171	-14.2909	27.2662	-23.8444	
603	41	65	-0.092	-14.9963	26.0599	-23.842	
604	41	22	0.121	-14.4596	25.114	-23.8435	
605	41	65	-0.268	-16.3935	26.0631	-23.8442	
606	41	22	0.142	-16.933	25.1179	-23.8512	
607	41	65	0.328	-17.1144	27.2664	-23.8457	
608	41	14	-0.515	-18.6268	27.2663	-23.8432	
609	41	22	0.141	-19.027	27.2671	-22.8201	
610	41	22	0.141	-19.0269	28.1527	-24.3477	
611	41	22	0.141	-19.0269	26.3792	-24.3464	
612	41	65	-0.268	-16.3933	28.4696	-23.8441	
613	41	22	0.142	-16.9329	29.4148	-23.851	
614	41	65	-0.092	-14.9962	28.4726	-23.842	
615	41	22	0.121	-14.4594	29.4184	-23.8436	
616	42	22	0.129	-5.0774	-67.1812	26.518	
617	42	65	-0.171	-6.1646	-67.1811	26.5183	
618	42	65	-0.092	-6.87	-68.3874	26.5207	
619	42	22	0.121	-6.3333	-69.3333	26.5192	
620	42	65	-0.268	-8.2672	-68.3842	26.5186	
621	42	22	0.142	-8.8067	-69.3294	26.5116	
622	42	65	0.328	-8.988	-67.1809	26.517	
623	42	14	-0.515	-10.5005	-67.181	26.5195	
624	42	22	0.141	-10.9007	-67.1802	27.5426	
625	42	22	0.141	-10.9006	-66.2946	26.0151	
626	42	22	0.141	-10.9006	-68.0681	26.0163	
627	42	65	-0.268	-8.267	-65.9777	26.5186	
628	42	22	0.142	-8.8066	-65.0325	26.5117	
629	42	65	-0.092	-6.8698	-65.9747	26.5207	
630	42	22	0.121	-6.3331	-65.0289	26.5191	
631	43	22	0.129	8.0871	-64.444	23.2249	
632	43	65	-0.171	6.9999	-64.4439	23.2252	
633	43	65	-0.092	6.2945	-65.6502	23.2276	
634	43	22	0.121	6.8312	-66.5961	23.2261	
635	43	65	-0.268	4.8973	-65.6471	23.2255	
636	43	22	0.142	4.3578	-66.5922	23.2185	
637	43	65	0.328	4.1764	-64.4438	23.2239	
638	43	14	-0.515	2.664	-64.4438	23.2264	
639	43	22	0.141	2.2638	-64.443	24.2495	
640	43	22	0.141	2.2639	-63.5574	22.722	
641	43	22	0.141	2.2639	-65.3309	22.7232	
642	43	65	-0.268	4.8975	-63.2405	23.2255	
643	43	22	0.142	4.3579	-62.2954	23.2186	
644	43	65	-0.092	6.2946	-63.2375	23.2276	
645	43	22	0.121	6.8314	-62.2917	23.226	
646	44	22	0.129	-23.2203	58.8443	1.7932	
647	44	65	-0.171	-24.3075	58.8444	1.7934	
648	44	65	-0.092	-25.0129	57.6381	1.7959	
649	44	22	0.121	-24.4762	56.6922	1.7944	
650	44	65	-0.268	-26.4101	57.6413	1.7937	
651	44	22	0.142	-26.9496	56.6961	1.7867	
652	44	65	0.328	-27.1309	58.8446	1.7922	
653	44	14	-0.515	-28.6434	58.8445	1.7947	
654	44	22	0.141	-29.0436	58.8453	2.8178	
655	44	22	0.141	-29.0435	59.7309	1.2902	
656	44	22	0.141	-29.0435	57.9574	1.2914	
657	44	65	-0.268	-26.4099	60.0478	1.7938	
658	44	22	0.142	-26.9495	60.993	1.7869	
659	44	65	-0.092	-25.0127	60.0508	1.7958	
660	44	22	0.121	-24.476	60.9966	1.7942	
661	45	22	0.129	-1.7137	-14.9722	25.1962	
662	45	65	-0.171	-2.8009	-14.9721	25.1964	
663	45	65	-0.092	-3.5062	-16.1784	25.1989	
664	45	22	0.121	-2.9696	-17.1243	25.1974	
665	45	65	-0.268	-4.9034	-16.1753	25.1967	
666	45	22	0.142	-5.443	-17.1205	25.1897	
667	45	65	0.328	-5.6243	-14.972	25.1952	
668	45	14	-0.515	-7.1368	-14.9721	25.1977	
669	45	22	0.141	-7.537	-14.9712	26.2208	
670	45	22	0.141	-7.5369	-14.0856	24.6932	
671	45	22	0.141	-7.5369	-15.8592	24.6945	
672	45	65	-0.268	-4.9033	-13.7688	25.1968	
673	45	22	0.142	-5.4429	-12.8236	25.1899	
674	45	65	-0.092	-3.5061	-13.7658	25.1988	
675	45	22	0.121	-2.9694	-12.8199	25.1972	
676	46	22	0.129	20.9183	42.8372	-14.7444	
677	46	65	-0.171	19.8311	42.8373	-14.7441	
678	46	65	-0.092	19.1257	41.631	-14.7417	
679	46	22	0.121	19.6624	40.6851	-14.7431	
680	46	65	-0.268	17.7285	41.6341	-14.7438	
681	46	22	0.142	17.1889	40.689	-14.7508	
682	46	65	0.328	17.0076	42.8374	-14.7454	
683	46	14	-0.515	15.4952	42.8374	-14.7429	
684	46	22	0.141	15.095	42.8382	-13.7198	
685	46	22	0.141	15.0951	43.7238	-15.2473	
686	46	22	0.141	15.0951	41.9503	-15.2461	
687	46	65	-0.268	17.7286	44.0407	-14.7438	
688	46	22	0.142	17.1891	44.9858	-14.7507	
689	46	65	-0.092	19.1258	44.0437	-14.7417	
690	46	22	0.121	19.6626	44.9895	-14.7433	
691	47	22	0.129	16.0271	-17.5994	7.4776	
692	47	65	-0.171	14.9399	-17.5994	7.4778	
693	47	65	-0.092	14.2345	-18.8056	7.4803	
694	47	22	0.121	14.7712	-19.7515	7.4788	
695	47	65	-0.268	12.8373	-18.8025	7.4781	
696	47	22	0.142	12.2978	-19.7477	7.4711	
697	47	65	0.328	12.1164	-17.5992	7.4765	
698	47	14	-0.515	10.604	-17.5993	7.4791	
699	47	22	0.141	10.2038	-17.5985	8.5022	
700	47	22	0.141	10.2039	-16.7129	6.9746	
701	47	22	0.141	10.2039	-18.4864	6.9758	
702	47	65	-0.268	12.8375	-16.396	7.4782	
703	47	22	0.142	12.2979	-15.4508	7.4713	
704	47	65	-0.092	14.2347	-16.393	7.4802	
705	47	22	0.121	14.7714	-15.4472	7.4786	
706	48	22	0.129	-6.7124	2.4077	21.2122	
707	48	65	-0.171	-7.7996	2.4078	21.2125	
708	48	65	-0.092	-8.505	1.2015	21.2149	
709	48	22	0.121	-7.9684	0.25559	21.2134	
710	48	65	-0.268	-9.9022	1.2046	21.2128	
711	48	22	0.142	-10.4418	0.25943	21.2058	
712	48	65	0.328	-10.6231	2.4079	21.2112	
713	48	14	-0.515	-12.1356	2.4078	21.2137	
714	48	22	0.141	-12.5358	2.4087	22.2368	
715	48	22	0.141	-12.5356	3.2942	20.7093	