LAMMPS data file via write_data, version 29 Sep 2021, timestep = 55000

14408 atoms
4 atom types
6916 bonds
1 bond types
3458 angles
1 angle types

-41.03294275356468 41.03294275356468 xlo xhi
-12.554740120379734 12.554740120379734 ylo yhi
-15.022 90 zlo zhi

Masses

1 12.0107
2 12.0107
3 15.9994
4 1.00794

Bond Coeffs # harmonic

1 0 0.9572

Angle Coeffs # harmonic

1 0 104.52

Atoms # full

7 0 1 0 -40.804828939597094 -10.462069777473756 -6.385415417992933 0 0 0
8 0 1 0 -40.80483031824565 -9.067708879221145 -6.379548177611808 0 0 0
9 0 1 0 -39.59798905976151 -12.55451647945937 -6.391103512827556 0 0 0
10 0 1 0 -39.59798922525198 -11.160151654464903 -6.387543560433146 0 0 0
11 0 1 0 -38.39114840301243 -10.462070186293328 -6.384409186731885 0 0 0
12 0 1 0 -38.391149909590105 -9.067709023264063 -6.378536876274865 0 0 0
145 0 1 0 -39.597990087335866 -8.369622532324616 -6.376115335450159 0 0 0
146 0 1 0 -39.59799353289305 -6.975263313756272 -6.369525317166692 0 0 0
951 0 1 0 -35.24986571720828 -10.461128169729129 -2.81377831540358 1 0 0
952 0 1 0 -35.24990004893976 -9.066782298896491 -2.807820025792795 1 0 0
13 0 1 0 -37.18430720141293 -12.554517137079042 -6.389168616403644 0 0 0
14 0 1 0 -37.18430709956032 -11.160151615275025 -6.385612590414636 0 0 0
149 0 1 0 -37.184312207026366 -8.369623278225099 -6.3741748360176 0 0 0
150 0 1 0 -37.1843162852645 -6.9752639879326805 -6.36757587128902 0 0 0
15 0 1 0 -35.97746826981211 -10.46207074470959 -6.381634500930847 0 0 0
16 0 1 0 -35.97746994284676 -9.06770926411994 -6.375756906452965 0 0 0
949 0 1 0 -36.45668929259149 -12.553597137119722 -2.821609470755881 1 0 0
950 0 1 0 -36.456712331728 -11.159238042810886 -2.818018541454439 1 0 0
1085 0 1 0 -36.456755783121274 -8.368676452756773 -2.8064270873138977 1 0 0
1086 0 1 0 -36.45679380797291 -6.9743375157931045 -2.7997298042481606 1 0 0
947 0 1 0 -37.66356947690484 -10.461127168822948 -2.817052172013023 1 0 0
948 0 1 0 -37.6636024695985 -9.066779812016815 -2.811105049068237 1 0 0
17 0 1 0 -34.770624179113184 -12.554517146263812 -6.385662018755173 0 0 0
18 0 1 0 -34.770625372079294 -11.160151338930007 -6.3821143870819 0 0 0
153 0 1 0 -34.770633896168036 -8.369624312184179 -6.370675454165658 0 0 0
154 0 1 0 -34.770638484588 -6.975264243539539 -6.364073400128605 0 0 0
1082 0 1 0 -38.870495172842375 -6.974333930725899 -2.8022724042000444 1 0 0
1081 0 1 0 -38.87045762724508 -8.368673995875131 -2.80896178114911 1 0 0
946 0 1 0 -38.87041979676296 -11.159236564468204 -2.8205314359798876 1 0 0
945 0 1 0 -38.87039827494326 -12.553597062326306 -2.8241255655159048 1 0 0
943 0 1 0 -40.0772767453826 -10.461125303088675 -2.8186939908444835 1 0 0
944 0 1 0 -40.07730843005047 -9.066777033529954 -2.8127564299831285 1 0 0
817 0 1 0 -34.04298588585452 -12.553597158426708 -2.8177261607341144 0 0 0
818 0 1 0 -34.04300979538451 -11.159239585281167 -2.814135059212896 0 0 0
953 0 1 0 -34.04305700362577 -8.368678222216378 -2.802529844276032 0 0 0
954 0 1 0 -34.04309569043145 -6.9743401573347645 -2.7958213627869473 0 0 0
819 0 1 0 -32.83616593102133 -10.461129053829351 -2.809446053464237 0 0 0
820 0 1 0 -32.83620142833186 -9.06678385171398 -2.8034797220250383 0 0 0
821 0 1 0 -31.629287138689914 -12.553596782503817 -2.8131304361172607 0 0 0
822 0 1 0 -31.629310734296187 -11.159240172285712 -2.8095369390489964 0 0 0
957 0 1 0 -31.62936059214696 -8.368678551829039 -2.7979164086886232 0 0 0
958 0 1 0 -31.62939994010062 -6.97434062357229 -2.7911948435313203 0 0 0
823 0 1 0 -30.422468390388794 -10.461129310570746 -2.804767747348343 0 0 0
824 0 1 0 -30.422504579125516 -9.066784351503095 -2.798798256224922 0 0 0
825 0 1 0 -29.21559053701147 -12.553597109667113 -2.8085724827086107 0 0 0
826 0 1 0 -29.215613414020858 -11.159240231110939 -2.8049760748502113 0 0 0
961 0 1 0 -29.215663612625796 -8.368678720759766 -2.7933506161427406 0 0 0
962 0 1 0 -29.215703531501767 -6.974340626337483 -2.7866152685376697 0 0 0
827 0 1 0 -28.008770456087685 -10.461128705197924 -2.8005135963371774 0 0 0
828 0 1 0 -28.008807201640305 -9.066784018543252 -2.794544284406806 0 0 0
19 0 1 0 -33.56378672733321 -10.462071519675522 -6.377571690641293 0 0 0
20 0 1 0 -33.5637894614336 -9.067709438756644 -6.371692124358953 0 0 0
21 0 1 0 -32.35693929029436 -12.554517228565661 -6.381207736259315 0 0 0
22 0 1 0 -32.35694186862696 -11.160150545512474 -6.37765671303872 0 0 0
23 0 1 0 -31.15010166624456 -10.462072606748087 -6.372899423464672 0 0 0
24 0 1 0 -31.150105163869974 -9.067709314376826 -6.367018960097216 0 0 0
157 0 1 0 -32.356952699744625 -8.369625645987924 -6.366216196934744 0 0 0
158 0 1 0 -32.356958137560085 -6.975264511471528 -6.359612976060687 0 0 0
25 0 1 0 -29.943251629971705 -12.554518073770256 -6.376523472695503 0 0 0
26 0 1 0 -29.943253868700758 -11.160150085162858 -6.372961443512711 0 0 0
161 0 1 0 -29.943265403685636 -8.369627238447052 -6.361512210821298 0 0 0
162 0 1 0 -29.94327260796335 -6.975264568234473 -6.354904079556567 0 0 0
27 0 1 0 -28.73641043713404 -10.462073267576883 -6.368361650055542 0 0 0
28 0 1 0 -28.73641505482089 -9.067709066550357 -6.362478765896375 0 0 0
29 0 1 0 -27.52955921626001 -12.554518194676152 -6.372349383034777 0 0 0
30 0 1 0 -27.529560939766927 -11.160149975804053 -6.368776467477529 0 0 0
165 0 1 0 -27.529571009982348 -8.369627964928345 -6.357316534274245 0 0 0
166 0 1 0 -27.52957961054605 -6.975264029992838 -6.350707785151245 0 0 0
829 0 1 0 -26.80189261965593 -12.553596445174747 -2.8047887828991716 0 0 0
830 0 1 0 -26.80191563354624 -11.159239802590733 -2.8011895651886825 0 0 0
965 0 1 0 -26.80196454237982 -8.368677964797957 -2.7895564019795334 0 0 0
966 0 1 0 -26.802005197567297 -6.974339386294894 -2.78280822977346 0 0 0
831 0 1 0 -25.595070802263137 -10.461127492679417 -2.797310905294843 0 0 0
832 0 1 0 -25.595107966602647 -9.066782680988643 -2.791338873039786 0 0 0
833 0 1 0 -24.388192931762433 -12.553595587356895 -2.8022555289240945 0 0 0
834 0 1 0 -24.388216088753243 -11.159238384149377 -2.7986525512107825 0 0 0
835 0 1 0 -23.181368556827934 -10.46112659680518 -2.795463277530187 0 0 0
836 0 1 0 -23.181405119291643 -9.066780764530293 -2.7894853110744062 0 0 0
969 0 1 0 -24.38826156419014 -8.368676406942056 -2.787007955440476 0 0 0
970 0 1 0 -24.388302655280235 -6.9743372406076505 -2.780259414358415 0 0 0
837 0 1 0 -21.97449059271179 -12.55359475468615 -2.801102731122308 0 0 0
838 0 1 0 -21.974513486140616 -11.159237008745892 -2.79749129972398 0 0 0
973 0 1 0 -21.974555681772788 -8.368675340071203 -2.7858499583531344 0 0 0
974 0 1 0 -21.974595985095743 -6.974335343278156 -2.7791102827307324 0 0 0
31 0 1 0 -26.32271359026813 -10.462074014035771 -6.364689548540472 0 0 0
32 0 1 0 -26.322718435118105 -9.067708779264567 -6.358804352319696 0 0 0
33 0 1 0 -25.11586078219392 -12.554518867389687 -6.3693249521326205 0 0 0
34 0 1 0 -25.1158620281751 -11.160149785369889 -6.365753212312891 0 0 0
169 0 1 0 -25.115869567790476 -8.36962850593844 -6.354294273624053 0 0 0
170 0 1 0 -25.11587823546004 -6.975263266225597 -6.347688235790832 0 0 0
839 0 1 0 -20.7676631083072 -10.461125731842264 -2.794955106065821 0 0 0
840 0 1 0 -20.767699541505092 -9.0667791507881 -2.7889717841618324 0 0 0
35 0 1 0 -23.909010669565244 -10.462074437516128 -6.362387738476107 0 0 0
36 0 1 0 -23.90901541566525 -9.067708079473455 -6.35650219062531 0 0 0
37 0 1 0 -22.70215656813769 -12.55451962996548 -6.367750096536511 0 0 0
38 0 1 0 -22.70215736822768 -11.160149438732791 -6.364179899560307 0 0 0
173 0 1 0 -22.702162119048058 -8.369628577013916 -6.352732893957233 0 0 0
174 0 1 0 -22.7021701150799 -6.975262186362221 -6.346123808715728 0 0 0
39 0 1 0 -21.49530248706004 -10.462074670981764 -6.361517628077445 0 0 0
40 0 1 0 -21.495307418397214 -9.067707415519179 -6.355629971835674 0 0 0
841 0 1 0 -19.560784862817844 -12.553594131096055 -2.80118109235136 0 0 0
842 0 1 0 -19.560807631808586 -11.159235536507884 -2.79756558689785 0 0 0
977 0 1 0 -19.560847240653032 -8.36867408614226 -2.785927550648662 0 0 0
978 0 1 0 -19.560887380807007 -6.974333786378513 -2.779189888308684 0 0 0
843 0 1 0 -18.353955377919522 -10.46112466980813 -2.79552217833667 0 0 0
844 0 1 0 -18.3539919337857 -9.066777613499458 -2.789535352696925 0 0 0
845 0 1 0 -17.147077915185307 -12.553593762457998 -2.8021398017361854 0 0 0
846 0 1 0 -17.147100577020787 -11.159234629834755 -2.7985187970509653 0 0 0
847 0 1 0 -15.940247365958164 -10.461124241531685 -2.7967377917362626 0 0 0
848 0 1 0 -15.940283408019486 -9.066776705826268 -2.7907408481028053 0 0 0
981 0 1 0 -17.147137915830577 -8.368673024724533 -2.7868632646891154 0 0 0
982 0 1 0 -17.147177516623202 -6.974332178479252 -2.7801172614394662 0 0 0
849 0 1 0 -14.733369866582727 -12.553593554280276 -2.8035150322392717 0 0 0
850 0 1 0 -14.73339242094761 -11.159234065961869 -2.7998892008058665 0 0 0
985 0 1 0 -14.733428650425779 -8.368672349430442 -2.788210401688099 0 0 0
986 0 1 0 -14.733467617487602 -6.974331352496793 -2.7814543897106105 0 0 0
41 0 1 0 -20.288447860117017 -12.554520226283572 -6.367515431021223 0 0 0
42 0 1 0 -20.288448476301415 -11.160148900689911 -6.363939076556216 0 0 0
43 0 1 0 -19.081591353675517 -10.462074308155234 -6.36182742142333 0 0 0
44 0 1 0 -19.081596196622968 -9.067706485962585 -6.355936497459922 0 0 0
45 0 1 0 -17.874736854337886 -12.554520321883482 -6.368291554931082 0 0 0
46 0 1 0 -17.874737394839542 -11.16014842048164 -6.364711712454211 0 0 0
177 0 1 0 -20.288450776323344 -8.369628180302847 -6.352489474061846 0 0 0
178 0 1 0 -20.288458200091352 -6.97526106161481 -6.345879014716433 0 0 0
181 0 1 0 -17.87473738603739 -8.369627700985356 -6.353251700802508 0 0 0
182 0 1 0 -17.874743776914155 -6.975260040087767 -6.346635033533024 0 0 0
47 0 1 0 -16.667878763577566 -10.46207405210808 -6.362949210728145 0 0 0
48 0 1 0 -16.6678827168422 -9.0677056775675 -6.357049219397142 0 0 0
49 0 1 0 -15.461024302921803 -12.554520305846593 -6.369636875005961 0 0 0
50 0 1 0 -15.461024798540034 -11.16014815728142 -6.366058632399993 0 0 0
185 0 1 0 -15.461022841465923 -8.369627015990872 -6.354579258155185 0 0 0
186 0 1 0 -15.461028762939506 -6.975259557764333 -6.347951395166858 0 0 0
51 0 1 0 -14.254165507949029 -10.462074112172418 -6.364387356285587 0 0 0
52 0 1 0 -14.254168509804376 -9.067705257374014 -6.358473871965959 0 0 0
851 0 1 0 -13.526538744210484 -10.46112390680964 -2.7981397036456137 0 0 0
852 0 1 0 -13.52657420413269 -9.066776105029128 -2.7921317412520636 0 0 0
853 0 1 0 -12.319662406335116 -12.553593441560071 -2.8048618726301147 0 0 0
854 0 1 0 -12.319683962365009 -11.159234026739682 -2.8012341902277047 0 0 0
855 0 1 0 -11.112831124544982 -10.461123478212386 -2.799355554602853 0 0 0
856 0 1 0 -11.112866058741975 -9.06677633424665 -2.793343427639927 0 0 0
989 0 1 0 -12.319719698910976 -8.368671587215939 -2.789544100772277 0 0 0
990 0 1 0 -12.319758368755519 -6.974331024823858 -2.7827844858701223 0 0 0
857 0 1 0 -9.905955219559548 -12.553593233812663 -2.8059047441774947 0 0 0
858 0 1 0 -9.905976765230378 -11.159234046891955 -2.8022771469504537 0 0 0
993 0 1 0 -9.906012782083693 -8.368671179613088 -2.790585692255201 0 0 0
994 0 1 0 -9.906051729899492 -6.974331326130059 -2.7838222015921144 0 0 0
859 0 1 0 -8.699125543921454 -10.461122653938885 -2.8002026358085708 0 0 0
860 0 1 0 -8.699159840790372 -9.06677596260506 -2.794192225041126 0 0 0
861 0 1 0 -7.492250152816311 -12.553592723133653 -2.806554111216146 0 0 0
862 0 1 0 -7.492272191644801 -11.159234137233131 -2.8029236055285693 0 0 0
997 0 1 0 -7.492308475565309 -8.368670631508511 -2.7912230164110117 0 0 0
998 0 1 0 -7.492347770236705 -6.974331275331493 -2.784456549316806 0 0 0
53 0 1 0 -13.047310995353488 -12.554520186896108 -6.371061082488513 0 0 0
54 0 1 0 -13.04731122911296 -11.160148026416438 -6.3674825967368935 0 0 0
55 0 1 0 -11.840451684672441 -10.462074395897865 -6.365700120705265 0 0 0
56 0 1 0 -11.840454109982694 -9.06770537879942 -6.35977322242506 0 0 0
57 0 1 0 -10.633597534048715 -12.554520287019432 -6.372220362698135 0 0 0
58 0 1 0 -10.633597007328692 -11.160148189079363 -6.368635921390418 0 0 0
189 0 1 0 -13.047308678500706 -8.3696268598301 -6.355974258693644 0 0 0
190 0 1 0 -13.047313746546887 -6.975259424680769 -6.34933121864052 0 0 0
193 0 1 0 -10.633594542407366 -8.369627203271122 -6.357105757365444 0 0 0
194 0 1 0 -10.633599013694724 -6.975259718229412 -6.350452367172691 0 0 0
59 0 1 0 -9.426737725444603 -10.462074607988962 -6.3666555382973815 0 0 0
60 0 1 0 -9.426739767885952 -9.067705640973298 -6.360718336640796 0 0 0
61 0 1 0 -8.219883873644058 -12.554520454200185 -6.37298998052885 0 0 0
62 0 1 0 -8.219882923604054 -11.160148249758738 -6.369394311338052 0 0 0
197 0 1 0 -8.219880424004117 -8.36962747866114 -6.357843675497508 0 0 0
198 0 1 0 -8.219884544771801 -6.975260091395959 -6.351189830163092 0 0 0
63 0 1 0 -7.013023947207714 -10.462074633306624 -6.367204748624973 0 0 0
64 0 1 0 -7.013025454231425 -9.067706029597346 -6.3612624967864715 0 0 0
863 0 1 0 -6.285422338778709 -10.461122547155028 -2.8006531198875795 0 0 0
864 0 1 0 -6.285456770005787 -9.066776615179277 -2.794639162475656 0 0 0
865 0 1 0 -5.0785483009587225 -12.553592325798165 -2.806855034031745 0 0 0
866 0 1 0 -5.0785699574094 -11.159234948236143 -2.8032192362240806 0 0 0
1001 0 1 0 -5.078607611045371 -8.368670374842864 -2.791502408798797 0 0 0
1002 0 1 0 -5.078646792212126 -6.974331694183368 -2.784735175160339 0 0 0
867 0 1 0 -3.8717224473608027 -10.461122483746188 -2.800823570233945 0 0 0
868 0 1 0 -3.8717568593922564 -9.066777133765086 -2.794804257194672 0 0 0
869 0 1 0 -2.6648501412924688 -12.55359234486553 -2.806950406433037 0 0 0
870 0 1 0 -2.664871572235711 -11.159235427281361 -2.8033137889118738 0 0 0
1005 0 1 0 -2.6649096104498113 -8.368669969683312 -2.7915978224897824 0 0 0
1006 0 1 0 -2.664948469913149 -6.9743321060164805 -2.784833146894883 0 0 0
871 0 1 0 -1.4580255437087573 -10.461122205145905 -2.80088464330721 0 0 0
872 0 1 0 -1.4580601970383853 -9.066777453453827 -2.79487014202755 0 0 0
65 0 1 0 -5.8061700911904595 -12.554520601401824 -6.373366126293023 0 0 0
66 0 1 0 -5.8061687838884595 -11.160148573158388 -6.369763111505041 0 0 0
67 0 1 0 -4.599310090979216 -10.46207507174526 -6.367426611818143 0 0 0
68 0 1 0 -4.599311621514055 -9.06770663555389 -6.361490316379387 0 0 0
201 0 1 0 -5.806166642377349 -8.369628089104143 -6.358215202068026 0 0 0
202 0 1 0 -5.806170655347437 -6.97526072245675 -6.351566460611137 0 0 0
873 0 1 0 -0.2511538607068573 -12.553591762055172 -2.8070092097799524 0 0 0
874 0 1 0 -0.25117555642368217 -11.159235238798193 -2.8033705538877545 0 0 0
1009 0 1 0 -0.2512140499516349 -8.368669616103887 -2.79167018834665 0 0 0
1010 0 1 0 -0.25125188336352977 -6.974332135020844 -2.784911660307527 0 0 0
69 0 1 0 -3.39245586412283 -12.554520499978628 -6.373480031542217 0 0 0
70 0 1 0 -3.3924544362861653 -11.160148525315032 -6.369879969241529 0 0 0
205 0 1 0 -3.3924529891448287 -8.369628888763575 -6.358352689703535 0 0 0
206 0 1 0 -3.392456613437858 -6.975261358907103 -6.351711237427073 0 0 0
71 0 1 0 -2.1855956546282513 -10.46207526455474 -6.367495143937189 0 0 0
72 0 1 0 -2.1855971099135942 -9.067706814487842 -6.361570919403464 0 0 0
73 0 1 0 -0.9787411649938846 -12.554520461273805 -6.373526379619243 0 0 0
74 0 1 0 -0.9787397472555739 -11.16014857510976 -6.369926777598716 0 0 0
209 0 1 0 -0.9787385169169056 -8.369629032587127 -6.358418824554585 0 0 0
210 0 1 0 -0.9787422232095437 -6.975261651515893 -6.351784751281931 0 0 0
143 0 1 0 -40.804832607266974 -6.2771728282925885 -6.366712319598458 0 0 0
144 0 1 0 -40.80483702155194 -4.882806992637219 -6.361164359399426 0 0 0
147 0 1 0 -38.39115668134973 -6.277172750138866 -6.365682615782971 0 0 0
148 0 1 0 -38.391162085769764 -4.882806934995535 -6.360129418509656 0 0 0
279 0 1 0 -40.80484118954212 -2.0922303834832423 -6.355182934313053 0 0 0
280 0 1 0 -40.804841563940364 -0.6978556643036047 -6.3554078821247835 0 0 0
281 0 1 0 -39.59800006861185 -4.184707007045862 -6.3586900590062445 0 0 0
282 0 1 0 -39.59800463981119 -2.7903325333056284 -6.3556275994361435 0 0 0
283 0 1 0 -38.39116896192722 -2.092230255953508 -6.354148452954526 0 0 0
284 0 1 0 -38.391169046513255 -0.6978552626452519 -6.354375019415743 0 0 0
1087 0 1 0 -35.24994900844269 -6.276235769009551 -2.794782289116549 1 0 0
1088 0 1 0 -35.24997931606801 -4.881892084559298 -2.7891265215199486 1 0 0
1223 0 1 0 -35.25000072545795 -2.0913298927811166 -2.7830886209357644 1 0 0
1224 0 1 0 -35.249998963097134 -0.6969817455416667 -2.7833182176153795 1 0 0
285 0 1 0 -37.18432654061773 -4.1847073821672485 -6.356732638341322 0 0 0
286 0 1 0 -37.184331337317666 -2.790332043934148 -6.353668906549791 0 0 0
151 0 1 0 -35.97748144322577 -6.277173784347228 -6.362892679640861 0 0 0
152 0 1 0 -35.97748711348365 -4.882807324358092 -6.357335860525081 0 0 0
287 0 1 0 -35.977495152419245 -2.0922304487360073 -6.351354253032598 0 0 0
288 0 1 0 -35.97749594935357 -0.6978546263401135 -6.351582263950904 0 0 0
1221 0 1 0 -36.45683071308601 -4.183785308880301 -2.7887496969209487 1 0 0
1222 0 1 0 -36.45684748162672 -2.789438519221786 -2.7856505811120247 1 0 0
1083 0 1 0 -37.66364666475028 -6.276233514633828 -2.798090580884738 1 0 0
1084 0 1 0 -37.66367690237602 -4.88188955074068 -2.7924492916161103 1 0 0
1219 0 1 0 -37.66369561355553 -2.0913291648179637 -2.786403680998383 1 0 0
1220 0 1 0 -37.66369378498377 -0.6969814468573414 -2.7866194587418214 1 0 0
289 0 1 0 -34.770652212608674 -4.18470821796072 -6.353226149641015 0 0 0
290 0 1 0 -34.77065611150728 -2.790331575523826 -6.350161099302479 0 0 0
1218 0 1 0 -38.87054440656157 -2.789436868520623 -2.7882089587811887 1 0 0
1217 0 1 0 -38.87052791280172 -4.183783503250432 -2.7913112794460844 1 0 0
1079 0 1 0 -40.0773478237561 -6.2762313981418085 -2.799754713865674 1 0 0
1080 0 1 0 -40.07737713340436 -4.881887569795868 -2.79411884874372 1 0 0
1215 0 1 0 -40.07739368909969 -2.0913291381819956 -2.788074583991092 1 0 0
1216 0 1 0 -40.07739205457195 -0.69698125825375 -2.788286195957676 1 0 0
1089 0 1 0 -34.04313602841232 -4.183786047008329 -2.7848114350106545 0 0 0
1090 0 1 0 -34.043153184300415 -2.7894393917304843 -2.78171243377 0 0 0
955 0 1 0 -32.83625419769196 -6.276236825572718 -2.7904195742757008 0 0 0
956 0 1 0 -32.8362849281617 -4.881893163349972 -2.7847492341758784 0 0 0
1091 0 1 0 -32.83630767032595 -2.091330033612289 -2.7787047673493674 0 0 0
1092 0 1 0 -32.83630558930621 -0.6969814715401483 -2.778942133488032 0 0 0
1093 0 1 0 -31.629442425990955 -4.1837869366367535 -2.780167775670593 0 0 0
1094 0 1 0 -31.629460221960073 -2.7894396923388527 -2.777063918289466 0 0 0
959 0 1 0 -30.422558688479924 -6.276237284012627 -2.785717182074505 0 0 0
960 0 1 0 -30.422589773810248 -4.881893263577485 -2.7800434316458684 0 0 0
1095 0 1 0 -30.42261362465763 -2.09133046924126 -2.7739850206459327 0 0 0
1096 0 1 0 -30.422611546889932 -0.696980814539458 -2.7742171961743782 0 0 0
1097 0 1 0 -29.21574567746851 -4.183787359992621 -2.7755857510993245 0 0 0
1098 0 1 0 -29.215763971364588 -2.7894392600468425 -2.772475418314185 0 0 0
963 0 1 0 -28.00886103358125 -6.27623686030278 -2.7814411749082257 0 0 0
964 0 1 0 -28.008891808858174 -4.881892621840601 -2.7757626185711928 0 0 0
1099 0 1 0 -28.00891533332987 -2.0913303438075843 -2.7696968504038626 0 0 0
1100 0 1 0 -28.00891349841055 -0.6969802595222099 -2.769923085929527 0 0 0
155 0 1 0 -33.563803636187444 -6.277174810203219 -6.358825081158217 0 0 0
156 0 1 0 -33.56380954643398 -4.882806609865881 -6.353272161688556 0 0 0
159 0 1 0 -31.150121396385906 -6.277176620044042 -6.354150137597907 0 0 0
160 0 1 0 -31.15012750925056 -4.882806666614898 -6.348599162715587 0 0 0
291 0 1 0 -33.563818398606905 -2.092231068186644 -6.347289232882726 0 0 0
292 0 1 0 -33.563819377212305 -0.697853641968269 -6.347514748630513 0 0 0
293 0 1 0 -32.356972729730515 -4.184709155196785 -6.348772751574259 0 0 0
294 0 1 0 -32.356976596858786 -2.7903309023437544 -6.345709026021277 0 0 0
295 0 1 0 -31.150136076690103 -2.092232302158676 -6.342620812378371 0 0 0
296 0 1 0 -31.150137350234083 -0.6978530735322881 -6.342838783339149 0 0 0
297 0 1 0 -29.943287371152728 -4.184710788583425 -6.344069185156577 0 0 0
298 0 1 0 -29.943291334408006 -2.7903310645970656 -6.341005608018058 0 0 0
163 0 1 0 -28.736431789042634 -6.277177806952933 -6.349601422425936 0 0 0
164 0 1 0 -28.736438501817652 -4.882806253192171 -6.344049450439355 0 0 0
299 0 1 0 -28.736446962418825 -2.092233708171875 -6.338063905844612 0 0 0
300 0 1 0 -28.736448148595905 -0.697852418546157 -6.338278555153897 0 0 0
301 0 1 0 -27.529594113923686 -4.184711937895711 -6.339861527948729 0 0 0
302 0 1 0 -27.52959798704811 -2.79033030446376 -6.336791269441493 0 0 0
1101 0 1 0 -26.802044956567073 -4.1837869469714715 -2.771768417515652 0 0 0
1102 0 1 0 -26.802063603284203 -2.7894381917513176 -2.768654493229999 0 0 0
967 0 1 0 -25.595159642031774 -6.27623564291028 -2.7782202513169185 0 0 0
968 0 1 0 -25.595189873910932 -4.88189122298615 -2.7725353486933404 0 0 0
1103 0 1 0 -25.595212324381436 -2.0913303563505234 -2.766461674059725 0 0 0
1104 0 1 0 -25.595210768770436 -0.6969794748111244 -2.7666908243610475 0 0 0
971 0 1 0 -23.181452620484723 -6.276234714968235 -2.776372036107647 0 0 0
972 0 1 0 -23.181483823626397 -4.881889840749539 -2.7706770348159004 0 0 0
1105 0 1 0 -24.38833967586231 -4.183786737829951 -2.7692018801637985 0 0 0
1106 0 1 0 -24.388358799578942 -2.789437319467046 -2.7660808742461267 0 0 0
1107 0 1 0 -23.18150472399177 -2.0913302365403545 -2.7645857406135566 0 0 0
1108 0 1 0 -23.181503053202942 -0.6969790895183898 -2.7648165633697115 0 0 0
1109 0 1 0 -21.97463047487565 -4.183785853387395 -2.7680358896038655 0 0 0
1110 0 1 0 -21.974649447394857 -2.789436303110815 -2.764900633890033 0 0 0
167 0 1 0 -26.3227333359213 -6.2771789344743185 -6.345926780421191 0 0 0
168 0 1 0 -26.322741411892956 -4.882805734979743 -6.340364082187138 0 0 0
303 0 1 0 -26.322749262821723 -2.092234433019538 -6.334362505394374 0 0 0
304 0 1 0 -26.32274994096838 -0.6978517052340418 -6.33458115250769 0 0 0
305 0 1 0 -25.11589172699773 -4.184712727571222 -6.336817799829884 0 0 0
306 0 1 0 -25.115896658875695 -2.790329567748554 -6.333733780951864 0 0 0
975 0 1 0 -20.767743141678775 -6.276233541787229 -2.7758795055672056 0 0 0
976 0 1 0 -20.767774784244754 -4.881888242327736 -2.7701789132317085 0 0 0
1111 0 1 0 -20.767794186542403 -2.0913297490355127 -2.764055194873899 0 0 0
1112 0 1 0 -20.7677926512883 -0.6969785331336489 -2.764282540092834 0 0 0
171 0 1 0 -23.90902663898249 -6.277179112603892 -6.343627626792571 0 0 0
172 0 1 0 -23.90903598880682 -4.882804635852141 -6.338048490478997 0 0 0
307 0 1 0 -23.909043737282758 -2.092234864172596 -6.332015180312085 0 0 0
308 0 1 0 -23.90904386710987 -0.6978509809133158 -6.332236850130148 0 0 0
309 0 1 0 -22.702181732280017 -4.184713020353367 -6.335224551836665 0 0 0
310 0 1 0 -22.70218801558709 -2.7903284989644916 -6.33212519786621 0 0 0
175 0 1 0 -21.49531496656227 -6.277178780824485 -6.342753910132052 0 0 0
176 0 1 0 -21.49532475460646 -4.882803780454491 -6.3371650843989205 0 0 0
311 0 1 0 -21.495331595485087 -2.0922352547273153 -6.331110464714955 0 0 0
312 0 1 0 -21.495331285689236 -0.6978505332639884 -6.3313295532614635 0 0 0
1113 0 1 0 -19.560919534067175 -4.1837846965834355 -2.7681117123521144 0 0 0
1114 0 1 0 -19.560938606456034 -2.789435013062297 -2.7649655913217988 0 0 0
979 0 1 0 -18.354032448716783 -6.2762320507951825 -2.7764361871622594 0 0 0
980 0 1 0 -18.354063863335018 -4.881886560937024 -2.770734971311109 0 0 0
1115 0 1 0 -18.354082634033183 -2.0913293740306624 -2.764609466640591 0 0 0
1116 0 1 0 -18.35408087540266 -0.6969780625399302 -2.7648369695925776 0 0 0
983 0 1 0 -15.940321468480228 -6.276230959688839 -2.7776200912381164 0 0 0
984 0 1 0 -15.940352714083232 -4.881885507391493 -2.77192197654543 0 0 0
1117 0 1 0 -17.1472075877734 -4.183783479148003 -2.769042600060054 0 0 0
1118 0 1 0 -17.14722681328211 -2.7894338326500474 -2.765900193171534 0 0 0
1119 0 1 0 -15.940370898788071 -2.091328851999201 -2.7658162456114166 0 0 0
1120 0 1 0 -15.94036983405691 -0.6969778031970986 -2.7660499742761395 0 0 0
1121 0 1 0 -14.733496836019622 -4.183782030957017 -2.77038122088158 0 0 0
1122 0 1 0 -14.733516129635532 -2.7894333465136985 -2.76725028505464 0 0 0
179 0 1 0 -19.081600504449746 -6.277178379381322 -6.3430561040638995 0 0 0
180 0 1 0 -19.081609928248593 -4.882802715436087 -6.337468252790222 0 0 0
313 0 1 0 -20.28846747452041 -4.184713084220421 -6.334974661177503 0 0 0
314 0 1 0 -20.2884738552361 -2.790328085828113 -6.331870857843157 0 0 0
315 0 1 0 -19.08161572581134 -2.0922354338312577 -6.331415189871299 0 0 0
316 0 1 0 -19.081614851591063 -0.6978497488329669 -6.331629949047919 0 0 0
317 0 1 0 -17.874750873513175 -4.184712729297033 -6.335735087302863 0 0 0
318 0 1 0 -17.87475730802676 -2.7903276906809484 -6.3326342744754776 0 0 0
183 0 1 0 -16.667884857874995 -6.277177689447319 -6.344154220434445 0 0 0
184 0 1 0 -16.66789358229345 -4.882802203547322 -6.338565613849122 0 0 0
319 0 1 0 -16.66789827493835 -2.0922355366194125 -6.332519009282597 0 0 0
320 0 1 0 -16.66789758077355 -0.6978501248548756 -6.332733540391468 0 0 0
321 0 1 0 -15.461034340308554 -4.184712531221473 -6.337043266436728 0 0 0
322 0 1 0 -15.461040313408123 -2.7903277086487925 -6.333949220405193 0 0 0
187 0 1 0 -14.254169523896632 -6.277177335288021 -6.345551172569346 0 0 0
188 0 1 0 -14.254177467251996 -4.882801857517727 -6.3399567619158645 0 0 0
323 0 1 0 -14.254181429964678 -2.092235672784806 -6.333926369920867 0 0 0
324 0 1 0 -14.254180879165407 -0.6978506979258263 -6.334149745317971 0 0 0
987 0 1 0 -13.526611639601704 -6.276230330646309 -2.7789979492182066 0 0 0
988 0 1 0 -13.526643350788042 -4.881884976909565 -2.773298620350884 0 0 0
1123 0 1 0 -13.526660952654932 -2.0913285533179327 -2.767205783371695 0 0 0
1124 0 1 0 -13.526659917472397 -0.6969781996518272 -2.7674460214113346 0 0 0
991 0 1 0 -11.112904029504246 -6.2762300250475125 -2.780205411663964 0 0 0
992 0 1 0 -11.112935391479091 -4.8818853125591035 -2.7745046017163215 0 0 0
1125 0 1 0 -12.319787913787689 -4.183782064700619 -2.7717071167845777 0 0 0
1126 0 1 0 -12.31980719897878 -2.7894338391113322 -2.768576850510007 0 0 0
1127 0 1 0 -11.11295326463462 -2.091328297494602 -2.768402449327258 0 0 0
1128 0 1 0 -11.112951999509402 -0.6969786335184107 -2.7686423612429394 0 0 0
1129 0 1 0 -9.906081910570425 -4.183781586290628 -2.7727387731207322 0 0 0
1130 0 1 0 -9.906100827434745 -2.789434131715403 -2.7696019663152267 0 0 0
995 0 1 0 -8.699198813733723 -6.276229615029839 -2.7810422476480934 0 0 0
996 0 1 0 -8.699230477757915 -4.8818853710859775 -2.7753401883476894 0 0 0
1131 0 1 0 -8.699248071890715 -2.091328331240442 -2.769226160564793 0 0 0
1132 0 1 0 -8.6992470977302 -0.6969793177991281 -2.7694606734170826 0 0 0
1133 0 1 0 -7.492378667930346 -4.183781465751359 -2.7733690463082343 0 0 0
1134 0 1 0 -7.4923969324978685 -2.78943480444444 -2.7702282199688835 0 0 0
191 0 1 0 -11.840454804048267 -6.277177209334875 -6.346822078374837 0 0 0
192 0 1 0 -11.840461879598557 -4.88280207638976 -6.3412255719124 0 0 0
325 0 1 0 -13.04731847580064 -4.184712289084128 -6.338412202367618 0 0 0
326 0 1 0 -13.047324046670447 -2.7903277400188653 -6.335328096371448 0 0 0
327 0 1 0 -11.840465647892099 -2.092235661497579 -6.3352119091481285 0 0 0
328 0 1 0 -11.840465399442312 -0.6978509863160856 -6.335448935058812 0 0 0
329 0 1 0 -10.63360358000459 -4.184711926282835 -6.33953521291207 0 0 0
330 0 1 0 -10.633608595901851 -2.790327685332315 -6.336458714647774 0 0 0
195 0 1 0 -9.426740444879478 -6.277177418447222 -6.347758039203075 0 0 0
196 0 1 0 -9.426747258825788 -4.882802153117918 -6.342167355902438 0 0 0
331 0 1 0 -9.426750777239775 -2.092235003884369 -6.336166333723906 0 0 0
332 0 1 0 -9.426750326873538 -0.6978506981229557 -6.3364050176437665 0 0 0
333 0 1 0 -8.219889243283198 -4.184711895876511 -6.340286853087591 0 0 0
334 0 1 0 -8.219893991386648 -2.7903275385873147 -6.337214917586733 0 0 0
199 0 1 0 -7.013026504568778 -6.277177706477828 -6.34830740200414 0 0 0
200 0 1 0 -7.013032857663511 -4.882802648314263 -6.342721738433772 0 0 0
335 0 1 0 -7.013036626982007 -2.0922347476563417 -6.33672112512591 0 0 0
336 0 1 0 -7.013036147619971 -0.6978503024852483 -6.336951522317129 0 0 0
999 0 1 0 -6.285497015985243 -6.276229101992173 -2.781482588291567 0 0 0
1000 0 1 0 -6.285528259581646 -4.881885519847847 -2.7757811333896782 0 0 0
1135 0 1 0 -6.285545818471192 -2.0913278143649645 -2.769666342489332 0 0 0
1136 0 1 0 -6.285545224312955 -0.6969794481659299 -2.7698948996840365 0 0 0
1137 0 1 0 -5.078678212248398 -4.183781361535811 -2.773654318914529 0 0 0
1138 0 1 0 -5.078696178880385 -2.7894352135089964 -2.7705192567118146 0 0 0
1003 0 1 0 -3.871797652355127 -6.276228657229847 -2.781648732418054 0 0 0
1004 0 1 0 -3.87182867056341 -4.881885617587048 -2.7759498138472303 0 0 0
1139 0 1 0 -3.8718462118929793 -2.0913279089325414 -2.7698499412236632 0 0 0
1140 0 1 0 -3.871844949174559 -0.6969799759879596 -2.7700749454081084 0 0 0
1141 0 1 0 -2.6649795143707706 -4.183781215763611 -2.7737618502661157 0 0 0
1142 0 1 0 -2.664997340345863 -2.7894354119326756 -2.7706328097992756 0 0 0
1007 0 1 0 -1.45810055865293 -6.276228854718559 -2.7817262358064063 0 0 0
1008 0 1 0 -1.4581307707624873 -4.881886354712887 -2.776028348934517 0 0 0
1143 0 1 0 -1.4581480395055308 -2.091328229830877 -2.769932017625699 0 0 0
1144 0 1 0 -1.4581470251964461 -0.6969804840479537 -2.7701578230241335 0 0 0
203 0 1 0 -4.599312764647429 -6.277178510040509 -6.348547763416672 0 0 0
204 0 1 0 -4.599319057508069 -4.882803392249148 -6.342958286194344 0 0 0
337 0 1 0 -5.806175316947822 -4.184712117347125 -6.340664875192795 0 0 0
338 0 1 0 -5.806180103877047 -2.7903276584081453 -6.337588958724201 0 0 0
339 0 1 0 -4.599323273581071 -2.0922346434980845 -6.336942065130996 0 0 0
340 0 1 0 -4.599322635582645 -0.6978503165876475 -6.337166245231243 0 0 0
1145 0 1 0 -0.251282332791412 -4.183781263191932 -2.773840649172092 0 0 0