LAMMPS data file via write_data, version 30 Jul 2021, timestep = 1200000

6000 atoms
1 atom types

-20 20 xlo xhi
-20 20 ylo yhi
-20 20 zlo zhi

Masses

1 12.0107

Atoms # full

3496 0 1 0 -16.118983745302778 -15.809949015252064 -14.191583532094134 0 1 0
5056 0 1 0 -15.088332696201457 -18.24231804734682 -14.512142666233714 1 1 1
2685 0 1 0 -15.826104195634223 -14.757123863330696 -16.292237705126794 0 0 1
3622 0 1 0 -15.981257179319257 -14.594106367409587 -14.905495936603245 0 0 0
5182 0 1 0 -16.468166674704577 -13.883002325299376 -17.23159386212444 0 1 1
1762 0 1 0 -17.51963384023685 -14.18209102273381 -18.077445671486707 0 0 1
1830 0 1 0 -14.821890166860262 -16.69479130155893 -14.257445815249849 0 0 1
3634 0 1 0 -18.75888187344327 -17.576474606119508 -15.257810005620792 1 0 0
1162 0 1 0 -16.448713740748616 -18.6307660525277 -14.689184532142303 0 0 0
55 0 1 0 -19.055248567575376 -18.801581569894083 -15.952113632484314 0 0 0
2895 0 1 0 -18.86853860652037 -13.769233692992886 -17.764270213409823 0 0 1
707 0 1 0 -15.435612225656323 -16.601101247706293 -19.36105084718463 1 0 0
1610 0 1 0 -14.821475071228397 -15.688219927004466 -16.72540942055168 1 0 1
1632 0 1 0 -17.70921406873257 -17.707310529475468 -14.048229413898351 0 0 1
4512 0 1 0 -19.17592696018972 -13.555523934924986 -13.914229367770593 1 1 1
3880 0 1 0 -14.715050067057478 -15.815478284349833 -18.266264168070293 0 0 0
2157 0 1 0 -19.696034297458098 -16.566728955903024 -15.790232838141455 0 0 1
2670 0 1 0 -17.163833019654316 -14.087136441099675 -19.57019424956183 0 0 1
142 0 1 0 -17.11956042141008 -16.42967639096057 -13.477540096930767 0 0 0
3318 0 1 0 -19.9093607743094 -15.100301509020094 -15.841792621995506 0 1 0
3703 0 1 0 -16.882334531863464 -19.760965511768326 -15.335746876141938 0 1 0
1323 0 1 0 16.682836882457913 -2.6943934871508417 -0.3233188080602066 -1 0 0
2752 0 1 0 -14.503740770844782 -17.532368288484694 -19.913666869834493 1 0 1
2050 0 1 0 -15.836625551227796 -13.389247263935097 -19.61394488570253 1 0 1
2668 0 1 0 -14.04635955897556 -16.243037267736128 -15.568608462989948 0 0 1
444 0 1 0 -13.87157108524927 -19.037532863497358 -14.839540553397509 1 0 1
4383 0 1 0 -13.151478183037876 -18.83667918072118 -18.43102231512389 0 1 0
434 0 1 0 -13.035558446234008 -18.364928235371835 -15.935515322617254 0 0 0
542 0 1 0 -11.532445637119933 -16.83168166276128 -14.87839437728684 1 1 0
4584 0 1 0 -12.386555624100305 -18.66227550500514 -17.240161009505062 0 1 1
1112 0 1 0 -10.320594989266812 -16.742544743599908 -15.60865374658126 0 0 0
3094 0 1 0 -10.111609266898723 -17.856089749423546 -16.508085972676 0 1 0
3404 0 1 0 -12.771373242919031 -16.981150672585773 -15.583107953184925 0 0 0
4792 0 1 0 -11.138128975794457 -17.938239452576006 -17.500183408025247 0 1 1
1185 0 1 0 -9.490502042419303 -15.651646537197175 -15.382440322248746 0 0 0
692 0 1 0 -11.113063813809228 -17.015603289710057 -18.623317027746264 1 0 0
1293 0 1 0 -13.368268064105376 -15.303211202539345 -18.841384511940216 0 0 1
340 0 1 0 -12.469582941938375 -16.534412300099667 -18.90027716875044 0 0 0
4516 0 1 0 -9.212688869470234 -15.342752660040038 -14.030789384907338 1 0 1
4833 0 1 0 -9.109852766733006 -18.889491746235592 -16.563079616337344 1 1 1
2801 0 1 0 -13.340213747108779 -17.627931053991375 -19.07415904438828 1 0 1
435 0 1 0 -11.382787788211388 -16.982403239083865 -13.514274608234894 1 0 0
4547 0 1 0 -10.090107505133085 -17.184751303506708 -19.724069030725403 0 1 1
2164 0 1 0 -13.436869996987289 -14.017596154870812 -19.529407889559984 0 0 1
3730 0 1 0 -13.134240339134761 -19.851295991587925 -13.833980165957785 1 1 0
1758 0 1 0 14.383231079312877 -1.6755909917801914 -0.5586183145597042 0 0 0
1232 0 1 0 17.09961536881359 -4.714212419892977 -1.5194985657481468 0 0 -1
3854 0 1 0 -8.471806216589291 -15.202039804279304 -16.269987172851305 0 1 0
5638 0 1 0 -8.398810356588523 -19.435849287164 -18.752186356195953 0 1 1
939 0 1 0 -5.840433981498964 -18.03229751568915 -19.509026155717258 0 0 0
4318 0 1 0 -8.107627745247445 -13.859665336242182 -16.667129463512897 0 1 0
4856 0 1 0 -8.186576272423816 -18.633932485992915 -17.622588516580404 0 1 1
4384 0 1 0 -6.9369393775853565 -17.109835947958302 -19.003164215533705 0 0 0
4239 0 1 0 -7.516796907841832 -17.40473887477757 -17.690251811376086 0 1 0
2413 0 1 0 -7.31957455107613 -16.280060549851438 -16.52791107866963 0 0 1
5239 0 1 0 -7.149512193319788 -13.844636029392769 -17.79811773816928 0 1 1
2277 0 1 0 -5.813524185348113 -15.49738914462219 -16.608068858735663 0 0 1
1530 0 1 0 -5.920229536202181 -14.582883407922916 -17.707433146949565 0 0 1
1420 0 1 0 -6.330410642084745 -17.447716224785996 -14.45743289076607 0 0 0
4200 0 1 0 -4.8075211676881855 -15.900044851578178 -15.594808303078775 0 1 0
2020 0 1 0 -5.018414012429461 -17.12436603156373 -14.779357899719969 0 0 0
3536 0 1 0 -5.004656958291946 -14.431236618271363 -18.909994922732686 0 1 0
3612 0 1 0 -3.484733127999784 -15.125656350702322 -15.43151115566442 0 0 0
3135 0 1 0 -7.260781190911867 -16.433182780105312 -14.888090470579007 0 1 0
1540 0 1 0 -4.153317489762514 -19.383953444371585 -18.428981409102644 0 0 0
5918 0 1 0 -3.4194547280881498 -13.932417644200232 -14.620050488096973 0 1 0
1167 0 1 0 -4.120558192661819 -17.8629046238656 -13.891284202684389 0 0 0
360 0 1 0 -7.7554856631749 -15.393093422553964 -13.988149181947051 0 0 0
1467 0 1 0 -6.773110156825049 -18.665609108368056 -13.75594825259297 0 0 0
891 0 1 0 -3.3014699826335967 -19.020874561858523 -14.446310674698672 0 0 0
5814 0 1 0 -4.506962020594682 -18.100794313304828 -18.96667269571938 0 1 1
653 0 1 0 -3.6257166200399893 -14.396957301138546 -18.63348353806569 0 0 0
3617 0 1 0 -3.8402633378361957 -16.866374744659016 -18.587803375637094 0 1 0
3955 0 1 0 -3.1057010322381178 -15.68164318191984 -18.2605619948585 0 1 0
524 0 1 0 -7.282740866739652 -19.92933887110093 -14.295950497055195 0 0 0
947 0 1 0 -18.048656652357625 -19.71633767825193 -16.16228306276242 1 0 0
3820 0 1 0 0.35082511136682576 -19.467334887718536 -18.73661190690308 0 1 0
4812 0 1 0 -0.450804169506697 -19.378572947652415 -17.531777227483843 0 1 0
4049 0 1 0 0.9266296972332487 -18.262268578347843 -19.272497295961482 0 1 0
2045 0 1 0 -2.0051444530592004 -15.635854000957204 -17.392660223179732 0 0 1
4014 0 1 0 -2.284292984335872 -15.723295579646622 -16.02226476892269 0 1 0
2286 0 1 0 0.08607093591316109 -17.10609541479261 -19.388464385882177 0 0 0
12 0 1 0 -1.8553160418061858 -18.88957763804972 -14.62528804369421 0 0 0
1013 0 1 0 0.1389121091944484 -16.3408370403557 -18.200104264309036 0 0 0
4484 0 1 0 1.4862596405427215 -14.939849785907743 -15.892445558459913 0 0 0
101 0 1 0 -1.494012068096987 -16.65637708931228 -15.250461590432968 0 0 0
3802 0 1 0 -0.7191887968678007 -15.223996170520216 -18.02853625463794 0 1 0
5959 0 1 0 1.2447464184257682 -16.390743027805076 -15.852006348590082 0 1 1
816 0 1 0 1.543952751693924 -16.97148053492376 -14.538678278401873 0 0 0
3465 0 1 0 0.4358079162318288 -16.999156497518044 -16.943016500485395 0 1 0
2552 0 1 0 -1.386859294232477 -18.020558019550286 -15.658772704858974 0 0 1
3843 0 1 0 -0.3924077351058608 -18.196526040878492 -16.716955884066518 0 1 0
1496 0 1 0 -0.84936445077166 -16.561890305656956 -14.015371529612667 0 0 0
2680 0 1 0 -0.5701674737549999 -13.966530023525138 -18.648249181838615 0 0 1
3466 0 1 0 0.29604762513928834 -17.448718858149945 -13.87004220809628 0 1 0
584 0 1 0 -1.2409713390612418 -14.342881523218542 -13.48340465577211 0 0 0
2657 0 1 0 -0.04002043233643608 -13.668224323022589 -13.899418734950107 0 0 1
2966 0 1 0 -0.9802769126497647 -19.51756177475647 -13.66505916628149 -1 0 1
2879 0 1 0 -2.525831478339743 -13.703387632879098 -13.472574172381194 0 -1 1
948 0 1 0 0.749259095157046 -13.785439560662084 -15.121647125442047 0 0 0
1351 0 1 0 2.7085524349648566 -16.88845567909772 -13.805684058835752 0 0 0
3291 0 1 0 0.28686592967472113 -13.681199358853327 -19.78474862898524 0 1 0
1516 0 1 0 3.0310152026115045 -14.246020204322432 -15.828532136385958 0 0 0
1538 0 1 0 3.6986277468911304 -16.02635038111695 -14.41553938610133 0 0 1
1257 0 1 0 6.37673341488832 -18.471018270530156 -15.39699752988963 0 0 0
1481 0 1 0 7.20931501969878 -16.033262313193074 -15.486970762071222 0 0 0
716 0 1 0 5.070514810606325 -15.681388106656572 -16.314959390893772 0 0 0
1054 0 1 0 6.459825899843661 -15.436402818266693 -16.56159660737952 0 0 0
2345 0 1 0 4.7044023465029285 -16.603015136875708 -15.2490977862196 0 1 1
3638 0 1 0 5.115351797662724 -17.99997676922947 -14.846975819317187 0 1 0
4600 0 1 0 7.442350798926298 -17.487215872767152 -15.490226333687426 -1 1 0
279 0 1 0 3.4596567998804724 -14.663598319455552 -14.412192483814511 -1 0 0
4225 0 1 0 4.3402994214256205 -18.736770382554553 -13.690509552700535 0 1 0
3540 0 1 0 4.385126584973536 -14.443601511794089 -16.544655399355847 0 0 0
570 0 1 0 6.73837084483809 -14.202524684991323 -17.720823060664877 1 0 0
4514 0 1 0 6.774499121076424 -14.16606881492834 -13.919437567342603 0 1 0
2208 0 1 0 6.247436904589519 -13.891794956040254 -19.19835480717661 0 0 1
2583 0 1 0 7.345796575208839 -15.460987610524747 -14.217646047311709 0 0 1
1249 0 1 0 4.837519033622069 -13.977428556435639 -19.45846681569553 0 0 0
855 0 1 0 8.32463652722241 -17.54765292757428 -18.60573461196142 0 0 0
3051 0 1 0 5.3558348178515915 -13.560031810792928 -17.0216114842589 0 0 1
3445 0 1 0 6.711504164900877 -19.798815469556814 -16.08215488562263 0 1 0
5399 0 1 0 7.216788971129101 -19.617262235955575 -17.496182876680738 0 1 1
3165 0 1 0 4.3161386051739274 -15.286593535360366 -19.31312311957074 0 1 0
1455 0 1 0 6.443057064145799 -19.35801699419332 -19.722154759974607 0 0 0
2705 0 1 0 8.09498703641598 -13.457986495088283 -17.53740796145848 0 0 1
209 0 1 0 8.30445587922005 -18.668447826123412 -17.614646595000995 -1 0 0
4825 0 1 0 8.132767343046083 -16.19909247373369 -13.367464667877108 0 1 0
3548 0 1 0 7.627923129692016 -17.36168740598864 -19.872864567170957 1 1 0
633 0 1 0 8.805598154391493 -17.971844190649193 -15.37733007505219 0 0 0
3246 0 1 0 12.141066099163766 -16.480122093406198 -19.5920156479686 0 1 0
5537 0 1 0 8.992548269364038 -13.950777342817918 -16.49272025404875 0 1 1
3038 0 1 0 9.199486174672932 -18.822101190460774 -16.438218438852058 0 0 1
4213 0 1 0 9.276212068314285 -18.092356059956273 -14.076503289716682 0 1 0
493 0 1 0 11.915639338601768 -14.2817137077133 -18.856156633591556 0 0 0
2695 0 1 0 10.24894135223552 -14.665297409876993 -16.73070852402446 0 0 1
849 0 1 0 10.293837747650707 -15.646582227946533 -17.792844676765515 0 0 0
3882 0 1 0 11.529292746737285 -14.388940421386925 -15.995346581450944 0 0 0
296 0 1 0 11.541899899347664 -14.41545822000572 -14.509768181280872 0 0 0
499 0 1 0 12.963804692885493 -14.027222329450732 -17.959837753533375 -1 0 0
2891 0 1 0 9.114264626094092 -16.400507141688117 -18.166253614054433 0 0 1
719 0 1 0 12.611460289396321 -14.994739918185722 -13.8323213934272 0 0 0
5813 0 1 0 11.343201403343379 -15.620857381931945 -18.771043009930306 0 0 1
5088 0 1 0 13.883115661936221 -15.398135437452432 -14.45525859808681 0 1 1
1457 0 1 0 11.638715375259434 -19.21493405997223 -14.264928007294728 0 0 0
1822 0 1 0 13.941277196775609 -19.073433760297718 -14.620579439396908 0 0 1
3557 0 1 0 13.558180960276514 -16.257686221382993 -19.37338958615648 0 1 0
2384 0 1 0 12.707411561654132 -13.827374142853072 -16.57609739714237 0 0 1
2036 0 1 0 10.531905035344817 -18.6212961622594 -13.639141152847827 -1 0 0
5535 0 1 0 13.951462935748873 -19.627327155141675 -19.362778127136146 -1 1 1
2791 0 1 0 12.894770773548588 -19.21500752787444 -13.581346322699472 -1 0 0
3992 0 1 0 13.94924948893632 -18.497766824988698 -18.557881779774643 -1 1 0
1128 0 1 0 11.362902178944331 -19.85302395186448 -15.528602299419925 0 0 0
3786 0 1 0 11.320938206884582 -13.484026848502918 -19.874606409562283 0 1 0
3659 0 1 0 9.98475120382375 -19.985148898702864 -15.999449007901461 0 1 0
5389 0 1 0 8.710874419862698 -13.374379709532878 -15.24313001875296 -1 1 1
4753 0 1 0 10.714611674239777 -13.454427862404518 -13.920668236667485 0 1 1
3895 0 1 0 14.222024106938365 -15.012207438074284 -19.860863814961633 0 1 0
4385 0 1 0 14.251173552316063 -17.123170803876018 -18.541695974877985 0 0 0
2139 0 1 0 13.786964171342836 -13.36769748399071 -15.760189764793909 0 0 1
616 0 1 0 -19.963340216315988 -14.497992193001386 -17.20115391515449 1 0 0
4882 0 1 0 14.492771235022376 -16.586856751523186 -13.812834124304798 0 0 1
189 0 1 0 19.78507335242052 -14.234045064836872 -14.712019658017864 0 0 0
2755 0 1 0 14.377914932078973 -14.361103732973348 -18.404157044349986 -1 0 1
247 0 1 0 19.65912574258832 -18.68963316478848 -16.53772680562662 -1 0 0
485 0 1 0 14.612001635421706 -14.440814824167662 -15.2612369387822 -1 0 1
1409 0 1 0 14.668555464907449 -17.801079046857463 -14.694634193089673 0 0 0
574 0 1 0 15.099702558643166 -16.641647999034717 -17.57141968750348 0 0 1
766 0 1 0 19.443421726456894 -17.246804263971345 -16.765428762687236 -1 1 0
3369 0 1 0 15.177063386406337 -15.267995147467385 -17.404107005467306 0 1 0
3216 0 1 0 16.713185311788987 -18.863897550098816 -14.758614764862584 0 1 0
261 0 1 0 15.876387550208232 -17.942224154853236 -15.44832623483136 0 0 0
4289 0 1 0 16.01297673339107 -17.53204031378531 -16.836650083509568 0 1 0
4364 0 1 0 18.465461184566426 -15.757703538076093 -18.542218422679152 0 1 0
1800 0 1 0 18.36325187969908 -16.885465503617223 -17.659413557056073 0 0 1
1212 0 1 0 17.26202902942251 -17.816935698915817 -17.568674827509234 0 0 1
2539 0 1 0 18.72595235561238 -14.460761404588174 -17.866962593629093 0 0 1
1022 0 1 0 15.716880121057926 -14.588050996244638 -16.204532009062422 -1 0 0
1999 0 1 0 16.92110814829583 -13.81714457975709 -16.284354115010007 0 0 1
883 0 1 0 18.535743044709598 -13.771902112396248 -14.273264590230129 0 0 0
2687 0 1 0 17.642174354639003 -19.24599423349205 -17.766749410133343 0 0 0
5600 0 1 0 18.494067568966713 -19.491356885649815 -16.59565749573146 -1 1 0
2019 0 1 0 16.32668294075852 -19.52225078281787 -13.531554463592386 -1 0 1
1088 0 1 0 17.456313349035426 -13.706652168273909 -17.608610462754097 -1 0 1
5869 0 1 0 17.778805943887743 -19.496619474632837 -15.389347123633806 -1 1 1
4724 0 1 0 18.763395276013657 -15.815153628844488 -19.946174602298296 -1 1 1
1558 0 1 0 -15.917149841849094 -13.291250406352884 -14.269527092690085 1 0 1
253 0 1 0 -15.661582300345058 -7.409187206754875 -19.38193944055939 0 0 0
1034 0 1 0 -16.414399464150655 -11.003200713083768 -19.067488029994703 1 0 0
2486 0 1 0 -15.965362355650035 -12.522616806984843 -17.327000331546284 1 0 1
2928 0 1 0 -15.823502067229866 -12.240182858269108 -18.68039351021032 0 0 1
5404 0 1 0 -18.7177377314942 -11.208584984048093 -17.96473049983089 0 0 1
1468 0 1 0 -16.502486310276115 -12.16821051870838 -14.973863268327094 0 0 0
286 0 1 0 -16.914887824113094 -9.49296785596845 -17.21291351406092 1 0 -1
1657 0 1 0 -16.09104587304813 -11.671262128632058 -16.24613494411586 0 0 0
1193 0 1 0 -16.00872618525271 -10.201058765056652 -16.329207424389327 1 0 0
5572 0 1 0 -17.74498956040673 -11.599330451554055 -14.481669838248688 1 0 0
148 0 1 0 -17.446360239053828 -10.585447375364355 -18.096610810001586 0 0 1
2838 0 1 0 -17.369634987323458 -8.159783523720828 -17.62456639015513 0 0 0
2201 0 1 0 -15.078183390674242 -9.624495750608089 -15.354915065247658 0 0 0
361 0 1 0 -15.33502538884884 -9.812793243111896 -13.926498984367045 0 0 0
1660 0 1 0 -18.76450327552398 -7.93785122713503 -17.524874918469237 0 0 1
4867 0 1 0 -18.98575726409236 -12.283853450780246 -14.479771087051134 0 1 1
988 0 1 0 -19.126455153228843 -12.481026725600001 -18.429819995468275 1 0 0
2104 0 1 0 -16.565105518122675 -7.074061094455897 -18.23018941995332 1 0 1
1639 0 1 0 -19.64434873247437 -9.041051233434112 -17.87720568957175 1 0 1
2926 0 1 0 -17.838611464934512 -10.273424530269967 -13.95213907399373 0 1 0
1709 0 1 0 -19.777693225322267 -10.338871735053017 -17.4461311803989 1 0 1
1408 0 1 0 -19.177772194588897 -9.685755418177989 -13.835434575031359 1 0 0
5689 0 1 0 -19.33358524499646 -12.680412237185925 -19.811727401063457 0 1 1
833 0 1 0 -16.70708726602365 -9.562364155196738 -13.458358586937903 1 0 0
534 0 1 0 -19.35894259170562 -6.633214855501799 -17.699401305358485 1 0 0
1448 0 1 0 -14.218501887758459 -7.298380667021427 -19.375704268489574 1 0 0
1614 0 1 0 -11.336981879560776 -12.204274998328108 -19.74643207596395 0 0 1
4525 0 1 0 -12.46770394115442 -13.018038632426007 -19.474544341021478 0 1 1
363 0 1 0 -13.482534109440808 -7.385420540046784 -17.059198010719633 0 0 0
351 0 1 0 -9.821253905228842 -10.329408591994358 -19.602426417054744 0 0 1
602 0 1 0 -13.741917196029265 -9.459530792994808 -15.85327655730396 0 0 0
3812 0 1 0 -13.468404884363403 -8.83180316490957 -17.149742669751713 0 0 0
5915 0 1 0 -12.74436387521707 -9.724913631840469 -14.904702770632852 0 1 1
650 0 1 0 -11.724741331459244 -10.318914529219155 -18.01014928345924 0 0 0
1706 0 1 0 -12.932789372717053 -9.609395362871625 -18.23849259039341 1 0 1
3242 0 1 0 -11.0057010757763 -10.018340986755533 -16.845093662425874 0 0 0
1442 0 1 0 -10.999540977534151 -10.978612551264069 -19.115797956148807 0 0 0
4649 0 1 0 -9.612316327663432 -9.708060016100157 -17.14228754834218 0 0 0
3098 0 1 0 -11.420925238429163 -9.782348454853487 -15.42133392731226 0 1 0
4382 0 1 0 -9.083639908688927 -9.770031991199946 -18.49142172873551 0 0 0
1109 0 1 0 -10.338169836672046 -9.892465511549528 -14.445662915509507 0 0 0
365 0 1 0 -9.192902418586446 -10.48743726609163 -15.002816840218312 1 0 0
1575 0 1 0 -9.452922455943302 -12.45881472452327 -13.640272134520053 0 0 0
3209 0 1 0 -12.947735601450377 -9.987786303526 -13.506293747885447 1 0 0
646 0 1 0 -8.97146645519167 -11.877327962294002 -14.862234322713755 0 0 0
443 0 1 0 -13.42372863905059 -9.449203652472363 -19.63287070296198 0 0 0
5967 0 1 0 -13.420951309419824 -6.744625378759514 -15.82839952343697 0 1 0
2202 0 1 0 -13.553771487143257 -6.645022098403445 -18.29912976839593 0 0 1
5829 0 1 0 -13.990519871890116 -6.608018989367889 -14.626127159047117 1 1 1
3903 0 1 0 -8.682548005642273 -9.712145978780619 -16.068384582996693 0 0 0
422 0 1 0 -8.102876057104018 -12.622141430052986 -15.778489172756803 0 0 0
2423 0 1 0 -7.209694274555166 -12.842905412888227 -18.85556150694457 0 0 1
5173 0 1 0 -6.845588732142507 -10.40732675570057 -19.216203789805697 0 0 1
5014 0 1 0 -6.641522181369619 -11.617427708508817 -18.406416668740615 0 0 1
5686 0 1 0 -5.522523189993448 -12.64445292898913 -14.0053674738169 0 0 1
118 0 1 0 -4.256110420108244 -12.76487231705811 -14.77411351971238 0 0 0
85 0 1 0 -6.8356368299718975 -11.876192248758764 -15.899761421479957 1 0 0
3756 0 1 0 -7.698298916378424 -9.407164161804277 -18.65742043717676 0 0 0
2718 0 1 0 -7.459360501892464 -9.037372127111382 -16.188673845565045 0 0 1
5143 0 1 0 -7.186374419454513 -8.558212794507897 -17.58727219157845 0 0 1
704 0 1 0 -3.5881592632315313 -10.77477336620974 -18.950521974444406 0 0 0
4378 0 1 0 -6.026924896102361 -11.7495788843097 -17.07413889783274 0 1 0
6000 0 1 0 -3.8543064034849235 -11.638086245366594 -15.673605005600225 0 0 0
46 0 1 0 -4.592280382432178 -11.778741382169661 -16.92707041409714 0 0 0
1329 0 1 0 -6.348039719106173 -9.199976559193697 -15.334465182090605 0 0 0
1028 0 1 0 -6.317837922500034 -10.146928724091538 -14.290100626309243 0 0 0
5069 0 1 0 -5.1880724038226935 -8.48381500395897 -15.625285576044838 0 1 1
1625 0 1 0 -3.7731581863201655 -11.961195133423402 -18.146702013488266 0 0 1
4954 0 1 0 -3.9600734093549854 -8.701103645603032 -14.99307463992355 0 1 1
1055 0 1 0 -6.284366106931715 -11.554201433724655 -14.573502439916549 0 0 0
5269 0 1 0 -6.212183406293543 -7.507482543828987 -17.71119238641961 0 0 1
2321 0 1 0 -5.132334955217169 -7.904701594137575 -16.90878740346426 1 0 1
3770 0 1 0 -3.9061486623374186 -7.932381860997242 -17.551095566367366 0 1 0
4898 0 1 0 -3.6711505050096416 -8.704299922680859 -13.64524539322353 0 0 0
4929 0 1 0 -3.048228686472507 -8.98164539420934 -17.39444782215528 1 0 0
770 0 1 0 -3.407970699620345 -6.787284593767469 -18.14688772056112 0 0 0
3293 0 1 0 -2.9478666452858593 -13.14401968694999 -18.313925819439717 0 1 0
1096 0 1 0 -2.7899059792122487 -9.156853194722432 -15.890339141820354 0 0 0
5716 0 1 0 -2.686606176391968 -10.692042537741026 -15.579591162206624 0 1 1
2588 0 1 0 -2.6441939709927906 -9.745627918268404 -18.538799898760036 0 0 1
3754 0 1 0 -1.5028980414696127 -12.943387103940244 -18.197776616261276 0 0 0
4199 0 1 0 1.9027798165704257 -13.023702065915703 -15.941814897793746 0 1 0
3413 0 1 0 -1.3605442537848276 -9.94645357034757 -19.13488779863877 1 0 0
4901 0 1 0 -1.4298031709620596 -11.036934831382437 -15.147817392139853 0 0 0
3795 0 1 0 -0.9954525344018537 -11.78491535538968 -17.514555483498558 0 0 0
1026 0 1 0 -0.8181375607970344 -10.567612575077879 -13.698373307851721 0 0 0
4455 0 1 0 1.63161964201452 -9.188528141037372 -18.089288326937982 0 1 0
2729 0 1 0 -0.5534834495406247 -11.47867951040089 -16.146048716281623 1 0 1
3303 0 1 0 0.885966333465003 -9.745982154447061 -15.229197846638094 0 0 0
1371 0 1 0 0.7803389846465384 -10.750348072507403 -16.29617803992728 0 0 0
5367 0 1 0 0.6799140345229464 -10.245512699045943 -13.939231692525853 0 1 1
3164 0 1 0 0.6665898631068313 -10.091574126158347 -17.72099377831838 1 0 0
2254 0 1 0 -0.48315559436512034 -10.609811683859641 -18.265723964950023 0 0 1
5178 0 1 0 0.5677365666772141 -8.411125156474704 -15.381475907031094 0 0 0
4186 0 1 0 -0.7301286326690617 -8.18963156647748 -14.720930878442534 0 0 0
3564 0 1 0 -1.6740588152118785 -8.066509580098927 -15.777220407201455 0 0 1
866 0 1 0 2.2904389289295937 -7.375779335350831 -16.742488583862002 0 0 0
1295 0 1 0 1.0271036170704768 -7.31771357485097 -16.159822077255726 0 0 0
870 0 1 0 1.9932509281752422 -11.70644346840982 -16.23755664164825 0 0 0
1166 0 1 0 1.828811940728915 -8.924264188582587 -19.47347800989112 0 0 1
2271 0 1 0 -1.2953609889911344 -7.089922113318415 -16.809508151521086 0 0 1
1050 0 1 0 2.5609771464697717 -8.715176124530062 -17.158584453929443 0 0 0
337 0 1 0 2.133882802904995 -7.530733000956251 -19.779290435747544 0 0 0
5414 0 1 0 -1.960139674570885 -6.706331486215554 -18.035390304755023 0 0 1
958 0 1 0 3.6703413710255566 -10.604085356983974 -19.85759128734114 0 0 0
4147 0 1 0 3.8366918195898663 -12.999252162166314 -19.69973824761797 0 1 0
1089 0 1 0 3.509566128514215 -7.0325242313569225 -19.63398819234346 0 -1 0
3188 0 1 0 3.181700578603086 -11.07323391854111 -16.657360485368184 0 1 0
4694 0 1 0 7.460941323778448 -13.142725997090889 -14.60965446378595 0 0 1
1168 0 1 0 3.3400825073362443 -9.642736750902401 -16.351522700435908 0 0 0
2081 0 1 0 4.216860255681184 -9.314959946369122 -15.215379373965405 1 0 1
2510 0 1 0 6.054061140957296 -11.198469589249083 -16.43163215317185 1 0 0
2007 0 1 0 5.229894873935647 -12.16515459473556 -17.11633707640095 0 0 1
5640 0 1 0 4.053797737743401 -11.71666568492966 -17.618929358991473 0 1 1
2655 0 1 0 7.047830848674397 -8.843809134280953 -17.11654173401997 0 0 1
3378 0 1 0 3.8841663853650656 -11.727805953108206 -19.013636530008657 0 0 0
907 0 1 0 6.999546576166498 -10.304765374043145 -17.08760232910964 0 0 0
5615 0 1 0 7.120962673008752 -7.762464568054162 -16.2140284150006 0 1 1
1119 0 1 0 5.998159876698577 -11.09237635005319 -14.989387418927947 0 0 0
2972 0 1 0 4.836858296516555 -10.450397519817674 -14.48139797829112 0 0 0
5346 0 1 0 7.173688792898725 -11.727427437354953 -14.387637361515608 0 1 0
4756 0 1 0 4.24273671691816 -8.073183096003259 -14.423090011978962 0 0 1
4431 0 1 0 7.534649932622674 -8.265240582487323 -18.52768610818516 0 1 0
1950 0 1 0 6.701323673817154 -7.595916878091522 -14.848444963452673 0 0 1
4926 0 1 0 5.266863942155699 -7.1447648555752155 -14.867657779805182 1 0 1
4157 0 1 0 8.107906208661007 -10.948365105788898 -17.746657975610592 -1 1 0
803 0 1 0 7.538320229316823 -7.344912985159672 -13.759840451412405 0 0 0
3663 0 1 0 8.300227033969806 -11.020308500158983 -13.8585193375689 0 0 0
4733 0 1 0 6.481004767585269 -8.494246836773836 -19.62207205919512 0 0 1
4424 0 1 0 8.411840583129583 -12.233084789741017 -18.219829173716995 -1 1 0
1665 0 1 0 7.798311635572811 -6.700382786289811 -18.249508126030356 -1 0 1
5862 0 1 0 8.905105463227105 -8.931383915605378 -18.746143417122333 0 0 1
4682 0 1 0 9.18753379741626 -10.004370634286468 -17.844571558289342 0 0 1
236 0 1 0 9.812759506183538 -12.614539110348126 -14.701546091412686 0 0 0
517 0 1 0 11.144647822842902 -8.769563029275439 -13.921401144706579 0 0 0
276 0 1 0 9.505652041751107 -11.222156055639214 -14.606508249141344 0 0 0
5192 0 1 0 10.259858906103664 -10.358249390579664 -15.468788040302995 -1 0 1
623 0 1 0 10.276245405365326 -10.31535496553413 -16.96613803172921 0 0 0
5990 0 1 0 11.513027723016663 -11.159763595546336 -18.97514768182053 0 1 0
665 0 1 0 12.671296461145568 -10.580749185597957 -16.852491448293478 0 0 0
5186 0 1 0 11.472527804921054 -10.765770923541035 -17.551924968026615 0 0 1
1509 0 1 0 12.70566987968384 -9.956608578084706 -15.52271792719795 0 0 1
2395 0 1 0 11.403600021269208 -9.700410357927804 -14.923255458608342 0 0 0
1391 0 1 0 13.56865038873592 -8.168867720107906 -14.191261229039927 -1 0 0
4570 0 1 0 13.843933079073727 -9.399467883854784 -14.846475444899584 0 0 1
4520 0 1 0 13.202495802181858 -7.747343491078646 -19.439781627330007 0 0 1
3171 0 1 0 13.875131179814122 -11.414330184864005 -17.150283556449846 0 0 0
1784 0 1 0 10.647497504200352 -12.242688922141749 -19.505974476220533 0 0 1
4534 0 1 0 9.134378591664529 -12.424069192556413 -19.512637629706173 0 1 1
5022 0 1 0 12.728405633669402 -10.526615757639114 -19.561157315861962 -1 1 1
583 0 1 0 12.918451863254969 -9.09194363698577 -19.42156495021319 0 0 0
768 0 1 0 13.905995560762026 -11.342558100352157 -19.604826507759714 0 0 0
3937 0 1 0 8.936737265839033 -7.490720330924886 -13.61295685017462 0 1 0
1188 0 1 0 12.275775077411623 -7.983597186774049 -13.477559141505274 -1 0 0
2919 0 1 0 9.786716599332903 -8.651584043214157 -13.488313271361097 0 0 1
5360 0 1 0 14.275240693650495 -7.094296937164818 -18.62773652298068 -1 1 1
2531 0 1 0 14.380113353962683 -11.942550422545422 -18.353974618711845 0 0 1
5476 0 1 0 16.56089770967092 -13.197457391777295 -18.615879492191652 0 0 1
2706 0 1 0 14.37304174199381 -12.070160332495147 -15.93465413680318 0 0 0
5207 0 1 0 14.474209669696378 -7.0589466692081 -14.26764384481999 -1 0 1
1053 0 1 0 19.521909400302278 -7.489150652859669 -19.75703692763569 0 0 1
5624 0 1 0 18.880272584866738 -9.91146257522925 -19.637726539187092 0 0 1
5585 0 1 0 19.620609082524616 -8.79870235520924 -19.10988177222889 -1 0 1
5153 0 1 0 15.189497203648616 -13.095983295427475 -18.45219448928039 -1 1 1
912 0 1 0 19.842210623215337 -11.582549927629948 -14.84016383496838 0 0 0
216 0 1 0 17.652372607179664 -12.856461552816214 -15.296406993700423 0 0 0
3362 0 1 0 18.899622424911648 -11.843946821760966 -15.859931914372982 0 0 0
240 0 1 0 18.97888373665574 -10.869901354764101 -16.95319574254668 -1 0 0
4582 0 1 0 17.815958586270817 -10.077710843038707 -17.465402130937054 -1 0 0
287 0 1 0 15.185966355892726 -9.917413940725913 -14.987286316317597 -1 0 0
2051 0 1 0 15.380588595116965 -11.346666876587163 -15.128930554385377 0 0 1
14 0 1 0 17.61848770075514 -8.965022335600835 -14.18246223715898 0 0 0
1963 0 1 0 16.666710283433645 -11.91599373521487 -14.637816372056184 0 0 1
5632 0 1 0 16.4055209784962 -9.002901064093338 -15.23410734503898 -1 1 1
5848 0 1 0 15.625606279844785 -7.712447915091979 -18.72561505792436 0 0 1
4041 0 1 0 16.983796113018297 -9.169943369151104 -16.851989793195674 -1 0 0
2815 0 1 0 16.25134391003636 -8.022081337167958 -17.57693303428678 -1 0 0
2434 0 1 0 17.677912348833402 -10.210465776603579 -18.9252913398535 0 1 1
5511 0 1 0 19.608109685134878 -10.39036530959427 -14.134581465287523 -1 1 1
4526 0 1 0 15.844319552949575 -7.740483508211462 -16.114416393181596 0 1 1
1337 0 1 0 18.225609703347157 -10.184989431927443 -13.928674862617923 0 0 0
406 0 1 0 17.27665458205532 -11.21075011235087 -13.570331333165527 0 0 0
332 0 1 0 16.615425672259615 -10.365100212742922 -19.779635556668087 0 0 1
3814 0 1 0 17.0356502661449 -12.72067336913274 -19.83557558855611 0 1 0
2544 0 1 0 14.934036991483346 -6.773518308174509 -15.625770304923611 0 -1 1
1317 0 1 0 -9.809496922293308 -19.933906008752185 -19.038599127352285 0 1 0
3003 0 1 0 -16.179006892953648 -5.761459401601099 -14.156315805495312 1 0 0
2403 0 1 0 -18.66922410948117 -2.384703906810506 -18.982204441204985 1 0 1
1463 0 1 0 -18.975572555957715 -5.4788527103301305 -16.904490936747926 1 0 0
358 0 1 0 -17.46120552603708 -5.475454979800643 -16.617853260929095 0 0 0
2385 0 1 0 -18.75428163994911 -2.349561861299746 -16.071436614574857 0 0 1
817 0 1 0 -16.262246799399694 -3.7470823516247393 -15.567857521921953 0 0 0
840 0 1 0 -16.459265475840198 -2.4788717886712486 -14.932645810533623 1 0 0
299 0 1 0 -18.565450877446473 -2.0597920830376655 -17.58393754660853 1 0 1
231 0 1 0 -16.92979360501532 -5.705807649574718 -17.96581474582755 0 0 0
164 0 1 0 -16.552828061716983 -5.131346322136832 -15.479243563098068 0 0 0
4818 0 1 0 -17.767666307016288 -1.86711555454595 -15.034314210238115 0 0 1
3290 0 1 0 -15.436277003795757 -1.853111592916405 -14.004158426641032 0 0 0
4527 0 1 0 -17.78674933794325 -0.7392902345543474 -14.091815906286428 1 0 1
72 0 1 0 -17.38092293874559 -4.664991005887291 -18.893487386346578 0 0 1
2852 0 1 0 -18.402931397149775 -3.795558598572835 -19.459167110519815 1 0 1
3263 0 1 0 -14.83089104973956 -6.098823166567938 -13.664954331908746 0 1 0
269 0 1 0 -15.411530829269092 -0.3663226604437217 -13.802680753623585 0 0 0
5152 0 1 0 -19.882907206662757 -3.307702891763726 -15.872145095494592 0 0 1
5061 0 1 0 -19.892434045778252 -4.373787620286699 -16.84597103272872 1 0 1
5042 0 1 0 -12.217899005992386 -19.999194046461827 -10.634765845260665 0 1 1
736 0 1 0 -12.9046995783996 -5.496798276380542 -18.628286594193316 0 0 0
1438 0 1 0 -12.06581605673594 -4.903972150125288 -19.499688963558484 0 0 0
3758 0 1 0 -3.9930915759010794 -5.239845685588189 -19.905096753485278 0 0 0
2283 0 1 0 -5.800734902156821 -6.405319887641874 -18.660225313590388 0 -1 1