#  Sampson

14408 atoms
6916 bonds
3458 angles

4 atom types
1 bond types
1 angle types

# membrane 
 
-41.222809220139276 41.222809220139276 xlo xhi 
-12.599999999999998 12.599999999999998 ylo yhi 
-15.022 90 zlo zhi 

Masses 
 
1 12.0107
2 12.0107
3 15.9994
4 1.00794

Atoms 
 
1 0 1 0 -41.222809220139276 -12.599999999999998 -6.696 
2 0 1 0 -41.222809220139276 -11.199999999999998 -6.696 
3 0 1 0 -40.01037365484106 -10.499999999999998 -6.696 
4 0 1 0 -40.01037365484106 -9.099999999999998 -6.696 
5 0 1 0 -38.797938089542846 -12.599999999999998 -6.696 
6 0 1 0 -38.797938089542846 -11.199999999999998 -6.696 
7 0 1 0 -37.58550252424463 -10.499999999999998 -6.696 
8 0 1 0 -37.58550252424463 -9.099999999999998 -6.696 
9 0 1 0 -36.37306695894642 -12.599999999999998 -6.696 
10 0 1 0 -36.37306695894642 -11.199999999999998 -6.696 
11 0 1 0 -35.1606313936482 -10.499999999999998 -6.696 
12 0 1 0 -35.1606313936482 -9.099999999999998 -6.696 
13 0 1 0 -33.94819582834999 -12.599999999999998 -6.696 
14 0 1 0 -33.94819582834999 -11.199999999999998 -6.696 
15 0 1 0 -32.73576026305177 -10.499999999999998 -6.696 
16 0 1 0 -32.73576026305177 -9.099999999999998 -6.696 
17 0 1 0 -31.52332469775356 -12.599999999999998 -6.696 
18 0 1 0 -31.52332469775356 -11.199999999999998 -6.696 
19 0 1 0 -30.310889132455344 -10.499999999999998 -6.696 
20 0 1 0 -30.310889132455344 -9.099999999999998 -6.696 
21 0 1 0 -29.09845356715713 -12.599999999999998 -6.696 
22 0 1 0 -29.09845356715713 -11.199999999999998 -6.696 
23 0 1 0 -27.886018001858915 -10.499999999999998 -6.696 
24 0 1 0 -27.886018001858915 -9.099999999999998 -6.696 
25 0 1 0 -26.6735824365607 -12.599999999999998 -6.696 
26 0 1 0 -26.6735824365607 -11.199999999999998 -6.696 
27 0 1 0 -25.461146871262486 -10.499999999999998 -6.696 
28 0 1 0 -25.461146871262486 -9.099999999999998 -6.696 
29 0 1 0 -24.24871130596427 -12.599999999999998 -6.696 
30 0 1 0 -24.24871130596427 -11.199999999999998 -6.696 
31 0 1 0 -23.036275740666056 -10.499999999999998 -6.696 
32 0 1 0 -23.036275740666056 -9.099999999999998 -6.696 
33 0 1 0 -21.82384017536784 -12.599999999999998 -6.696 
34 0 1 0 -21.82384017536784 -11.199999999999998 -6.696 
35 0 1 0 -20.611404610069627 -10.499999999999998 -6.696 
36 0 1 0 -20.611404610069627 -9.099999999999998 -6.696 
37 0 1 0 -19.398969044771412 -12.599999999999998 -6.696 
38 0 1 0 -19.398969044771412 -11.199999999999998 -6.696 
39 0 1 0 -18.186533479473198 -10.499999999999998 -6.696 
40 0 1 0 -18.186533479473198 -9.099999999999998 -6.696 
41 0 1 0 -16.974097914174983 -12.599999999999998 -6.696 
42 0 1 0 -16.974097914174983 -11.199999999999998 -6.696 
43 0 1 0 -15.761662348876769 -10.499999999999998 -6.696 
44 0 1 0 -15.761662348876769 -9.099999999999998 -6.696 
45 0 1 0 -14.549226783578554 -12.599999999999998 -6.696 
46 0 1 0 -14.549226783578554 -11.199999999999998 -6.696 
47 0 1 0 -13.33679121828034 -10.499999999999998 -6.696 
48 0 1 0 -13.33679121828034 -9.099999999999998 -6.696 
49 0 1 0 -12.124355652982125 -12.599999999999998 -6.696 
50 0 1 0 -12.124355652982125 -11.199999999999998 -6.696 
51 0 1 0 -10.91192008768391 -10.499999999999998 -6.696 
52 0 1 0 -10.91192008768391 -9.099999999999998 -6.696 
53 0 1 0 -9.699484522385696 -12.599999999999998 -6.696 
54 0 1 0 -9.699484522385696 -11.199999999999998 -6.696 
55 0 1 0 -8.487048957087481 -10.499999999999998 -6.696 
56 0 1 0 -8.487048957087481 -9.099999999999998 -6.696 
57 0 1 0 -7.274613391789267 -12.599999999999998 -6.696 
58 0 1 0 -7.274613391789267 -11.199999999999998 -6.696 
59 0 1 0 -6.0621778264910535 -10.499999999999998 -6.696 
60 0 1 0 -6.0621778264910535 -9.099999999999998 -6.696 
61 0 1 0 -4.849742261192839 -12.599999999999998 -6.696 
62 0 1 0 -4.849742261192839 -11.199999999999998 -6.696 
63 0 1 0 -3.6373066958946247 -10.499999999999998 -6.696 
64 0 1 0 -3.6373066958946247 -9.099999999999998 -6.696 
65 0 1 0 -2.4248711305964106 -12.599999999999998 -6.696 
66 0 1 0 -2.4248711305964106 -11.199999999999998 -6.696 
67 0 1 0 -1.2124355652981964 -10.499999999999998 -6.696 
68 0 1 0 -1.2124355652981964 -9.099999999999998 -6.696 
69 0 1 0 1.7763568394002505e-14 -12.599999999999998 -6.696 
70 0 1 0 1.7763568394002505e-14 -11.199999999999998 -6.696 
71 0 1 0 1.212435565298232 -10.499999999999998 -6.696 
72 0 1 0 1.212435565298232 -9.099999999999998 -6.696 
73 0 1 0 2.424871130596446 -12.599999999999998 -6.696 
74 0 1 0 2.424871130596446 -11.199999999999998 -6.696 
75 0 1 0 3.6373066958946603 -10.499999999999998 -6.696 
76 0 1 0 3.6373066958946603 -9.099999999999998 -6.696 
77 0 1 0 4.849742261192874 -12.599999999999998 -6.696 
78 0 1 0 4.849742261192874 -11.199999999999998 -6.696 
79 0 1 0 6.062177826491089 -10.499999999999998 -6.696 
80 0 1 0 6.062177826491089 -9.099999999999998 -6.696 
81 0 1 0 7.274613391789303 -12.599999999999998 -6.696 
82 0 1 0 7.274613391789303 -11.199999999999998 -6.696 
83 0 1 0 8.487048957087516 -10.499999999999998 -6.696 
84 0 1 0 8.487048957087516 -9.099999999999998 -6.696 
85 0 1 0 9.699484522385731 -12.599999999999998 -6.696 
86 0 1 0 9.699484522385731 -11.199999999999998 -6.696 
87 0 1 0 10.911920087683946 -10.499999999999998 -6.696 
88 0 1 0 10.911920087683946 -9.099999999999998 -6.696 
89 0 1 0 12.12435565298216 -12.599999999999998 -6.696 
90 0 1 0 12.12435565298216 -11.199999999999998 -6.696 
91 0 1 0 13.336791218280375 -10.499999999999998 -6.696 
92 0 1 0 13.336791218280375 -9.099999999999998 -6.696 
93 0 1 0 14.54922678357859 -12.599999999999998 -6.696 
94 0 1 0 14.54922678357859 -11.199999999999998 -6.696 
95 0 1 0 15.761662348876804 -10.499999999999998 -6.696 
96 0 1 0 15.761662348876804 -9.099999999999998 -6.696 
97 0 1 0 16.97409791417502 -12.599999999999998 -6.696 
98 0 1 0 16.97409791417502 -11.199999999999998 -6.696 
99 0 1 0 18.186533479473233 -10.499999999999998 -6.696 
100 0 1 0 18.186533479473233 -9.099999999999998 -6.696 
101 0 1 0 19.398969044771448 -12.599999999999998 -6.696 
102 0 1 0 19.398969044771448 -11.199999999999998 -6.696 
103 0 1 0 20.611404610069663 -10.499999999999998 -6.696 
104 0 1 0 20.611404610069663 -9.099999999999998 -6.696 
105 0 1 0 21.823840175367877 -12.599999999999998 -6.696 
106 0 1 0 21.823840175367877 -11.199999999999998 -6.696 
107 0 1 0 23.036275740666092 -10.499999999999998 -6.696 
108 0 1 0 23.036275740666092 -9.099999999999998 -6.696 
109 0 1 0 24.248711305964306 -12.599999999999998 -6.696 
110 0 1 0 24.248711305964306 -11.199999999999998 -6.696 
111 0 1 0 25.46114687126252 -10.499999999999998 -6.696 
112 0 1 0 25.46114687126252 -9.099999999999998 -6.696 
113 0 1 0 26.673582436560736 -12.599999999999998 -6.696 
114 0 1 0 26.673582436560736 -11.199999999999998 -6.696 
115 0 1 0 27.88601800185895 -10.499999999999998 -6.696 
116 0 1 0 27.88601800185895 -9.099999999999998 -6.696 
117 0 1 0 29.098453567157165 -12.599999999999998 -6.696 
118 0 1 0 29.098453567157165 -11.199999999999998 -6.696 
119 0 1 0 30.31088913245538 -10.499999999999998 -6.696 
120 0 1 0 30.31088913245538 -9.099999999999998 -6.696 
121 0 1 0 31.523324697753594 -12.599999999999998 -6.696 
122 0 1 0 31.523324697753594 -11.199999999999998 -6.696 
123 0 1 0 32.73576026305181 -10.499999999999998 -6.696 
124 0 1 0 32.73576026305181 -9.099999999999998 -6.696 
125 0 1 0 33.94819582835002 -12.599999999999998 -6.696 
126 0 1 0 33.94819582835002 -11.199999999999998 -6.696 
127 0 1 0 35.16063139364824 -10.499999999999998 -6.696 
128 0 1 0 35.16063139364824 -9.099999999999998 -6.696 
129 0 1 0 36.37306695894645 -12.599999999999998 -6.696 
130 0 1 0 36.37306695894645 -11.199999999999998 -6.696 
131 0 1 0 37.58550252424467 -10.499999999999998 -6.696 
132 0 1 0 37.58550252424467 -9.099999999999998 -6.696 
133 0 1 0 38.79793808954288 -12.599999999999998 -6.696 
134 0 1 0 38.79793808954288 -11.199999999999998 -6.696 
135 0 1 0 40.010373654841096 -10.499999999999998 -6.696 
136 0 1 0 40.010373654841096 -9.099999999999998 -6.696 
137 0 1 0 -41.222809220139276 -8.399999999999999 -6.696 
138 0 1 0 -41.222809220139276 -6.999999999999998 -6.696 
139 0 1 0 -40.01037365484106 -6.299999999999999 -6.696 
140 0 1 0 -40.01037365484106 -4.899999999999999 -6.696 
141 0 1 0 -38.797938089542846 -8.399999999999999 -6.696 
142 0 1 0 -38.797938089542846 -6.999999999999998 -6.696 
143 0 1 0 -37.58550252424463 -6.299999999999999 -6.696 
144 0 1 0 -37.58550252424463 -4.899999999999999 -6.696 
145 0 1 0 -36.37306695894642 -8.399999999999999 -6.696 
146 0 1 0 -36.37306695894642 -6.999999999999998 -6.696 
147 0 1 0 -35.1606313936482 -6.299999999999999 -6.696 
148 0 1 0 -35.1606313936482 -4.899999999999999 -6.696 
149 0 1 0 -33.94819582834999 -8.399999999999999 -6.696 
150 0 1 0 -33.94819582834999 -6.999999999999998 -6.696 
151 0 1 0 -32.73576026305177 -6.299999999999999 -6.696 
152 0 1 0 -32.73576026305177 -4.899999999999999 -6.696 
153 0 1 0 -31.52332469775356 -8.399999999999999 -6.696 
154 0 1 0 -31.52332469775356 -6.999999999999998 -6.696 
155 0 1 0 -30.310889132455344 -6.299999999999999 -6.696 
156 0 1 0 -30.310889132455344 -4.899999999999999 -6.696 
157 0 1 0 -29.09845356715713 -8.399999999999999 -6.696 
158 0 1 0 -29.09845356715713 -6.999999999999998 -6.696 
159 0 1 0 -27.886018001858915 -6.299999999999999 -6.696 
160 0 1 0 -27.886018001858915 -4.899999999999999 -6.696 
161 0 1 0 -26.6735824365607 -8.399999999999999 -6.696 
162 0 1 0 -26.6735824365607 -6.999999999999998 -6.696 
163 0 1 0 -25.461146871262486 -6.299999999999999 -6.696 
164 0 1 0 -25.461146871262486 -4.899999999999999 -6.696 
165 0 1 0 -24.24871130596427 -8.399999999999999 -6.696 
166 0 1 0 -24.24871130596427 -6.999999999999998 -6.696 
167 0 1 0 -23.036275740666056 -6.299999999999999 -6.696 
168 0 1 0 -23.036275740666056 -4.899999999999999 -6.696 
169 0 1 0 -21.82384017536784 -8.399999999999999 -6.696 
170 0 1 0 -21.82384017536784 -6.999999999999998 -6.696 
171 0 1 0 -20.611404610069627 -6.299999999999999 -6.696 
172 0 1 0 -20.611404610069627 -4.899999999999999 -6.696 
173 0 1 0 -19.398969044771412 -8.399999999999999 -6.696 
174 0 1 0 -19.398969044771412 -6.999999999999998 -6.696 
175 0 1 0 -18.186533479473198 -6.299999999999999 -6.696 
176 0 1 0 -18.186533479473198 -4.899999999999999 -6.696 
177 0 1 0 -16.974097914174983 -8.399999999999999 -6.696 
178 0 1 0 -16.974097914174983 -6.999999999999998 -6.696 
179 0 1 0 -15.761662348876769 -6.299999999999999 -6.696 
180 0 1 0 -15.761662348876769 -4.899999999999999 -6.696 
181 0 1 0 -14.549226783578554 -8.399999999999999 -6.696 
182 0 1 0 -14.549226783578554 -6.999999999999998 -6.696 
183 0 1 0 -13.33679121828034 -6.299999999999999 -6.696 
184 0 1 0 -13.33679121828034 -4.899999999999999 -6.696 
185 0 1 0 -12.124355652982125 -8.399999999999999 -6.696 
186 0 1 0 -12.124355652982125 -6.999999999999998 -6.696 
187 0 1 0 -10.91192008768391 -6.299999999999999 -6.696 
188 0 1 0 -10.91192008768391 -4.899999999999999 -6.696 
189 0 1 0 -9.699484522385696 -8.399999999999999 -6.696 
190 0 1 0 -9.699484522385696 -6.999999999999998 -6.696 
191 0 1 0 -8.487048957087481 -6.299999999999999 -6.696 
192 0 1 0 -8.487048957087481 -4.899999999999999 -6.696 
193 0 1 0 -7.274613391789267 -8.399999999999999 -6.696 
194 0 1 0 -7.274613391789267 -6.999999999999998 -6.696 
195 0 1 0 -6.0621778264910535 -6.299999999999999 -6.696 
196 0 1 0 -6.0621778264910535 -4.899999999999999 -6.696 
197 0 1 0 -4.849742261192839 -8.399999999999999 -6.696 
198 0 1 0 -4.849742261192839 -6.999999999999998 -6.696 
199 0 1 0 -3.6373066958946247 -6.299999999999999 -6.696 
200 0 1 0 -3.6373066958946247 -4.899999999999999 -6.696 
201 0 1 0 -2.4248711305964106 -8.399999999999999 -6.696 
202 0 1 0 -2.4248711305964106 -6.999999999999998 -6.696 
203 0 1 0 -1.2124355652981964 -6.299999999999999 -6.696 
204 0 1 0 -1.2124355652981964 -4.899999999999999 -6.696 
205 0 1 0 1.7763568394002505e-14 -8.399999999999999 -6.696 
206 0 1 0 1.7763568394002505e-14 -6.999999999999998 -6.696 
207 0 1 0 1.212435565298232 -6.299999999999999 -6.696 
208 0 1 0 1.212435565298232 -4.899999999999999 -6.696 
209 0 1 0 2.424871130596446 -8.399999999999999 -6.696 
210 0 1 0 2.424871130596446 -6.999999999999998 -6.696 
211 0 1 0 3.6373066958946603 -6.299999999999999 -6.696 
212 0 1 0 3.6373066958946603 -4.899999999999999 -6.696 
213 0 1 0 4.849742261192874 -8.399999999999999 -6.696 
214 0 1 0 4.849742261192874 -6.999999999999998 -6.696 
215 0 1 0 6.062177826491089 -6.299999999999999 -6.696 
216 0 1 0 6.062177826491089 -4.899999999999999 -6.696 
217 0 1 0 7.274613391789303 -8.399999999999999 -6.696 
218 0 1 0 7.274613391789303 -6.999999999999998 -6.696 
219 0 1 0 8.487048957087516 -6.299999999999999 -6.696 
220 0 1 0 8.487048957087516 -4.899999999999999 -6.696 
221 0 1 0 9.699484522385731 -8.399999999999999 -6.696 
222 0 1 0 9.699484522385731 -6.999999999999998 -6.696 
223 0 1 0 10.911920087683946 -6.299999999999999 -6.696 
224 0 1 0 10.911920087683946 -4.899999999999999 -6.696 
225 0 1 0 12.12435565298216 -8.399999999999999 -6.696 
226 0 1 0 12.12435565298216 -6.999999999999998 -6.696 
227 0 1 0 13.336791218280375 -6.299999999999999 -6.696 
228 0 1 0 13.336791218280375 -4.899999999999999 -6.696 
229 0 1 0 14.54922678357859 -8.399999999999999 -6.696 
230 0 1 0 14.54922678357859 -6.999999999999998 -6.696 
231 0 1 0 15.761662348876804 -6.299999999999999 -6.696 
232 0 1 0 15.761662348876804 -4.899999999999999 -6.696 
233 0 1 0 16.97409791417502 -8.399999999999999 -6.696 
234 0 1 0 16.97409791417502 -6.999999999999998 -6.696 
235 0 1 0 18.186533479473233 -6.299999999999999 -6.696 
236 0 1 0 18.186533479473233 -4.899999999999999 -6.696 
237 0 1 0 19.398969044771448 -8.399999999999999 -6.696 
238 0 1 0 19.398969044771448 -6.999999999999998 -6.696 
239 0 1 0 20.611404610069663 -6.299999999999999 -6.696 
240 0 1 0 20.611404610069663 -4.899999999999999 -6.696 
241 0 1 0 21.823840175367877 -8.399999999999999 -6.696 
242 0 1 0 21.823840175367877 -6.999999999999998 -6.696 
243 0 1 0 23.036275740666092 -6.299999999999999 -6.696 
244 0 1 0 23.036275740666092 -4.899999999999999 -6.696 
245 0 1 0 24.248711305964306 -8.399999999999999 -6.696 
246 0 1 0 24.248711305964306 -6.999999999999998 -6.696 
247 0 1 0 25.46114687126252 -6.299999999999999 -6.696 
248 0 1 0 25.46114687126252 -4.899999999999999 -6.696 
249 0 1 0 26.673582436560736 -8.399999999999999 -6.696 
250 0 1 0 26.673582436560736 -6.999999999999998 -6.696 
251 0 1 0 27.88601800185895 -6.299999999999999 -6.696 
252 0 1 0 27.88601800185895 -4.899999999999999 -6.696 
253 0 1 0 29.098453567157165 -8.399999999999999 -6.696 
254 0 1 0 29.098453567157165 -6.999999999999998 -6.696 
255 0 1 0 30.31088913245538 -6.299999999999999 -6.696 
256 0 1 0 30.31088913245538 -4.899999999999999 -6.696 
257 0 1 0 31.523324697753594 -8.399999999999999 -6.696 
258 0 1 0 31.523324697753594 -6.999999999999998 -6.696 
259 0 1 0 32.73576026305181 -6.299999999999999 -6.696 
260 0 1 0 32.73576026305181 -4.899999999999999 -6.696 
261 0 1 0 33.94819582835002 -8.399999999999999 -6.696 
262 0 1 0 33.94819582835002 -6.999999999999998 -6.696 
263 0 1 0 35.16063139364824 -6.299999999999999 -6.696 
264 0 1 0 35.16063139364824 -4.899999999999999 -6.696 
265 0 1 0 36.37306695894645 -8.399999999999999 -6.696 
266 0 1 0 36.37306695894645 -6.999999999999998 -6.696 
267 0 1 0 37.58550252424467 -6.299999999999999 -6.696 
268 0 1 0 37.58550252424467 -4.899999999999999 -6.696 
269 0 1 0 38.79793808954288 -8.399999999999999 -6.696 
270 0 1 0 38.79793808954288 -6.999999999999998 -6.696 
271 0 1 0 40.010373654841096 -6.299999999999999 -6.696 
272 0 1 0 40.010373654841096 -4.899999999999999 -6.696 
273 0 1 0 -41.222809220139276 -4.199999999999999 -6.696 
274 0 1 0 -41.222809220139276 -2.7999999999999994 -6.696 
275 0 1 0 -40.01037365484106 -2.0999999999999996 -6.696 
276 0 1 0 -40.01037365484106 -0.6999999999999997 -6.696 
277 0 1 0 -38.797938089542846 -4.199999999999999 -6.696 
278 0 1 0 -38.797938089542846 -2.7999999999999994 -6.696 
279 0 1 0 -37.58550252424463 -2.0999999999999996 -6.696 
280 0 1 0 -37.58550252424463 -0.6999999999999997 -6.696 
281 0 1 0 -36.37306695894642 -4.199999999999999 -6.696 
282 0 1 0 -36.37306695894642 -2.7999999999999994 -6.696 
283 0 1 0 -35.1606313936482 -2.0999999999999996 -6.696 
284 0 1 0 -35.1606313936482 -0.6999999999999997 -6.696 
285 0 1 0 -33.94819582834999 -4.199999999999999 -6.696 
286 0 1 0 -33.94819582834999 -2.7999999999999994 -6.696 
287 0 1 0 -32.73576026305177 -2.0999999999999996 -6.696 
288 0 1 0 -32.73576026305177 -0.6999999999999997 -6.696 
289 0 1 0 -31.52332469775356 -4.199999999999999 -6.696 
290 0 1 0 -31.52332469775356 -2.7999999999999994 -6.696 
291 0 1 0 -30.310889132455344 -2.0999999999999996 -6.696 
292 0 1 0 -30.310889132455344 -0.6999999999999997 -6.696 
293 0 1 0 -29.09845356715713 -4.199999999999999 -6.696 
294 0 1 0 -29.09845356715713 -2.7999999999999994 -6.696 
295 0 1 0 -27.886018001858915 -2.0999999999999996 -6.696 
296 0 1 0 -27.886018001858915 -0.6999999999999997 -6.696 
297 0 1 0 -26.6735824365607 -4.199999999999999 -6.696 
298 0 1 0 -26.6735824365607 -2.7999999999999994 -6.696 
299 0 1 0 -25.461146871262486 -2.0999999999999996 -6.696 
300 0 1 0 -25.461146871262486 -0.6999999999999997 -6.696 
301 0 1 0 -24.24871130596427 -4.199999999999999 -6.696 
302 0 1 0 -24.24871130596427 -2.7999999999999994 -6.696 
303 0 1 0 -23.036275740666056 -2.0999999999999996 -6.696 
304 0 1 0 -23.036275740666056 -0.6999999999999997 -6.696 
305 0 1 0 -21.82384017536784 -4.199999999999999 -6.696 
306 0 1 0 -21.82384017536784 -2.7999999999999994 -6.696 
307 0 1 0 -20.611404610069627 -2.0999999999999996 -6.696 
308 0 1 0 -20.611404610069627 -0.6999999999999997 -6.696 
309 0 1 0 -19.398969044771412 -4.199999999999999 -6.696 
310 0 1 0 -19.398969044771412 -2.7999999999999994 -6.696 
311 0 1 0 -18.186533479473198 -2.0999999999999996 -6.696 
312 0 1 0 -18.186533479473198 -0.6999999999999997 -6.696 
313 0 1 0 -16.974097914174983 -4.199999999999999 -6.696 
314 0 1 0 -16.974097914174983 -2.7999999999999994 -6.696 
315 0 1 0 -15.761662348876769 -2.0999999999999996 -6.696 
316 0 1 0 -15.761662348876769 -0.6999999999999997 -6.696 
317 0 1 0 -14.549226783578554 -4.199999999999999 -6.696 
318 0 1 0 -14.549226783578554 -2.7999999999999994 -6.696 
319 0 1 0 -13.33679121828034 -2.0999999999999996 -6.696 
320 0 1 0 -13.33679121828034 -0.6999999999999997 -6.696 
321 0 1 0 -12.124355652982125 -4.199999999999999 -6.696 
322 0 1 0 -12.124355652982125 -2.7999999999999994 -6.696 
323 0 1 0 -10.91192008768391 -2.0999999999999996 -6.696 
324 0 1 0 -10.91192008768391 -0.6999999999999997 -6.696 
325 0 1 0 -9.699484522385696 -4.199999999999999 -6.696 
326 0 1 0 -9.699484522385696 -2.7999999999999994 -6.696 
327 0 1 0 -8.487048957087481 -2.0999999999999996 -6.696 
328 0 1 0 -8.487048957087481 -0.6999999999999997 -6.696 
329 0 1 0 -7.274613391789267 -4.199999999999999 -6.696 
330 0 1 0 -7.274613391789267 -2.7999999999999994 -6.696 
331 0 1 0 -6.0621778264910535 -2.0999999999999996 -6.696 
332 0 1 0 -6.0621778264910535 -0.6999999999999997 -6.696 
333 0 1 0 -4.849742261192839 -4.199999999999999 -6.696 
334 0 1 0 -4.849742261192839 -2.7999999999999994 -6.696 
335 0 1 0 -3.6373066958946247 -2.0999999999999996 -6.696 
336 0 1 0 -3.6373066958946247 -0.6999999999999997 -6.696 
337 0 1 0 -2.4248711305964106 -4.199999999999999 -6.696 
338 0 1 0 -2.4248711305964106 -2.7999999999999994 -6.696 
339 0 1 0 -1.2124355652981964 -2.0999999999999996 -6.696 
340 0 1 0 -1.2124355652981964 -0.6999999999999997 -6.696 
341 0 1 0 1.7763568394002505e-14 -4.199999999999999 -6.696 
342 0 1 0 1.7763568394002505e-14 -2.7999999999999994 -6.696 
343 0 1 0 1.212435565298232 -2.0999999999999996 -6.696 
344 0 1 0 1.212435565298232 -0.6999999999999997 -6.696 
345 0 1 0 2.424871130596446 -4.199999999999999 -6.696 
346 0 1 0 2.424871130596446 -2.7999999999999994 -6.696 
347 0 1 0 3.6373066958946603 -2.0999999999999996 -6.696 
348 0 1 0 3.6373066958946603 -0.6999999999999997 -6.696 
349 0 1 0 4.849742261192874 -4.199999999999999 -6.696 
350 0 1 0 4.849742261192874 -2.7999999999999994 -6.696 
351 0 1 0 6.062177826491089 -2.0999999999999996 -6.696 
352 0 1 0 6.062177826491089 -0.6999999999999997 -6.696 
353 0 1 0 7.274613391789303 -4.199999999999999 -6.696 
354 0 1 0 7.274613391789303 -2.7999999999999994 -6.696 
355 0 1 0 8.487048957087516 -2.0999999999999996 -6.696 
356 0 1 0 8.487048957087516 -0.6999999999999997 -6.696 
357 0 1 0 9.699484522385731 -4.199999999999999 -6.696 
358 0 1 0 9.699484522385731 -2.7999999999999994 -6.696 
359 0 1 0 10.911920087683946 -2.0999999999999996 -6.696 
360 0 1 0 10.911920087683946 -0.6999999999999997 -6.696 
361 0 1 0 12.12435565298216 -4.199999999999999 -6.696 
362 0 1 0 12.12435565298216 -2.7999999999999994 -6.696 
363 0 1 0 13.336791218280375 -2.0999999999999996 -6.696 
364 0 1 0 13.336791218280375 -0.6999999999999997 -6.696 
365 0 1 0 14.54922678357859 -4.199999999999999 -6.696 
366 0 1 0 14.54922678357859 -2.7999999999999994 -6.696 
367 0 1 0 15.761662348876804 -2.0999999999999996 -6.696 
368 0 1 0 15.761662348876804 -0.6999999999999997 -6.696 
369 0 1 0 16.97409791417502 -4.199999999999999 -6.696 
370 0 1 0 16.97409791417502 -2.7999999999999994 -6.696 
371 0 1 0 18.186533479473233 -2.0999999999999996 -6.696 
372 0 1 0 18.186533479473233 -0.6999999999999997 -6.696 
373 0 1 0 19.398969044771448 -4.199999999999999 -6.696 
374 0 1 0 19.398969044771448 -2.7999999999999994 -6.696 
375 0 1 0 20.611404610069663 -2.0999999999999996 -6.696 
376 0 1 0 20.611404610069663 -0.6999999999999997 -6.696 
377 0 1 0 21.823840175367877 -4.199999999999999 -6.696 
378 0 1 0 21.823840175367877 -2.7999999999999994 -6.696 
379 0 1 0 23.036275740666092 -2.0999999999999996 -6.696 
380 0 1 0 23.036275740666092 -0.6999999999999997 -6.696 
381 0 1 0 24.248711305964306 -4.199999999999999 -6.696 
382 0 1 0 24.248711305964306 -2.7999999999999994 -6.696 
383 0 1 0 25.46114687126252 -2.0999999999999996 -6.696 
384 0 1 0 25.46114687126252 -0.6999999999999997 -6.696 
385 0 1 0 26.673582436560736 -4.199999999999999 -6.696 
386 0 1 0 26.673582436560736 -2.7999999999999994 -6.696 
387 0 1 0 27.88601800185895 -2.0999999999999996 -6.696 
388 0 1 0 27.88601800185895 -0.6999999999999997 -6.696 
389 0 1 0 29.098453567157165 -4.199999999999999 -6.696 
390 0 1 0 29.098453567157165 -2.7999999999999994 -6.696 
391 0 1 0 30.31088913245538 -2.0999999999999996 -6.696 
392 0 1 0 30.31088913245538 -0.6999999999999997 -6.696 
393 0 1 0 31.523324697753594 -4.199999999999999 -6.696 
394 0 1 0 31.523324697753594 -2.7999999999999994 -6.696 
395 0 1 0 32.73576026305181 -2.0999999999999996 -6.696 
396 0 1 0 32.73576026305181 -0.6999999999999997 -6.696 
397 0 1 0 33.94819582835002 -4.199999999999999 -6.696 
398 0 1 0 33.94819582835002 -2.7999999999999994 -6.696 
399 0 1 0 35.16063139364824 -2.0999999999999996 -6.696 
400 0 1 0 35.16063139364824 -0.6999999999999997 -6.696 
401 0 1 0 36.37306695894645 -4.199999999999999 -6.696 
402 0 1 0 36.37306695894645 -2.7999999999999994 -6.696 
403 0 1 0 37.58550252424467 -2.0999999999999996 -6.696 
404 0 1 0 37.58550252424467 -0.6999999999999997 -6.696 
405 0 1 0 38.79793808954288 -4.199999999999999 -6.696 
406 0 1 0 38.79793808954288 -2.7999999999999994 -6.696 
407 0 1 0 40.010373654841096 -2.0999999999999996 -6.696 
408 0 1 0 40.010373654841096 -0.6999999999999997 -6.696 
409 0 1 0 -41.222809220139276 0.0 -6.696 
410 0 1 0 -41.222809220139276 1.4 -6.696 
411 0 1 0 -40.01037365484106 2.0999999999999996 -6.696 
412 0 1 0 -40.01037365484106 3.4999999999999996 -6.696 
413 0 1 0 -38.797938089542846 0.0 -6.696 
414 0 1 0 -38.797938089542846 1.4 -6.696 
415 0 1 0 -37.58550252424463 2.0999999999999996 -6.696 
416 0 1 0 -37.58550252424463 3.4999999999999996 -6.696 
417 0 1 0 -36.37306695894642 0.0 -6.696 
418 0 1 0 -36.37306695894642 1.4 -6.696 
419 0 1 0 -35.1606313936482 2.0999999999999996 -6.696 
420 0 1 0 -35.1606313936482 3.4999999999999996 -6.696 
421 0 1 0 -33.94819582834999 0.0 -6.696 
422 0 1 0 -33.94819582834999 1.4 -6.696 
423 0 1 0 -32.73576026305177 2.0999999999999996 -6.696 
424 0 1 0 -32.73576026305177 3.4999999999999996 -6.696 
425 0 1 0 -31.52332469775356 0.0 -6.696 
426 0 1 0 -31.52332469775356 1.4 -6.696 
427 0 1 0 -30.310889132455344 2.0999999999999996 -6.696 
428 0 1 0 -30.310889132455344 3.4999999999999996 -6.696 
429 0 1 0 -29.09845356715713 0.0 -6.696 
430 0 1 0 -29.09845356715713 1.4 -6.696 
431 0 1 0 -27.886018001858915 2.0999999999999996 -6.696 
432 0 1 0 -27.886018001858915 3.4999999999999996 -6.696 
433 0 1 0 -26.6735824365607 0.0 -6.696 
434 0 1 0 -26.6735824365607 1.4 -6.696 
435 0 1 0 -25.461146871262486 2.0999999999999996 -6.696 
436 0 1 0 -25.461146871262486 3.4999999999999996 -6.696 
437 0 1 0 -24.24871130596427 0.0 -6.696 
438 0 1 0 -24.24871130596427 1.4 -6.696 
439 0 1 0 -23.036275740666056 2.0999999999999996 -6.696 
440 0 1 0 -23.036275740666056 3.4999999999999996 -6.696 
441 0 1 0 -21.82384017536784 0.0 -6.696 
442 0 1 0 -21.82384017536784 1.4 -6.696 
443 0 1 0 -20.611404610069627 2.0999999999999996 -6.696 
444 0 1 0 -20.611404610069627 3.4999999999999996 -6.696 
445 0 1 0 -19.398969044771412 0.0 -6.696 
446 0 1 0 -19.398969044771412 1.4 -6.696 
447 0 1 0 -18.186533479473198 2.0999999999999996 -6.696 
448 0 1 0 -18.186533479473198 3.4999999999999996 -6.696 
449 0 1 0 -16.974097914174983 0.0 -6.696 
450 0 1 0 -16.974097914174983 1.4 -6.696 
451 0 1 0 -15.761662348876769 2.0999999999999996 -6.696 
452 0 1 0 -15.761662348876769 3.4999999999999996 -6.696 
453 0 1 0 -14.549226783578554 0.0 -6.696 
454 0 1 0 -14.549226783578554 1.4 -6.696 
455 0 1 0 -13.33679121828034 2.0999999999999996 -6.696 
456 0 1 0 -13.33679121828034 3.4999999999999996 -6.696 
457 0 1 0 -12.124355652982125 0.0 -6.696 
458 0 1 0 -12.124355652982125 1.4 -6.696 
459 0 1 0 -10.91192008768391 2.0999999999999996 -6.696 
460 0 1 0 -10.91192008768391 3.4999999999999996 -6.696 
461 0 1 0 -9.699484522385696 0.0 -6.696 
462 0 1 0 -9.699484522385696 1.4 -6.696 
463 0 1 0 -8.487048957087481 2.0999999999999996 -6.696 
464 0 1 0 -8.487048957087481 3.4999999999999996 -6.696 
465 0 1 0 -7.274613391789267 0.0 -6.696 
466 0 1 0 -7.274613391789267 1.4 -6.696 
467 0 1 0 -6.0621778264910535 2.0999999999999996 -6.696 
468 0 1 0 -6.0621778264910535 3.4999999999999996 -6.696 
469 0 1 0 -4.849742261192839 0.0 -6.696 
470 0 1 0 -4.849742261192839 1.4 -6.696 
471 0 1 0 -3.6373066958946247 2.0999999999999996 -6.696 
472 0 1 0 -3.6373066958946247 3.4999999999999996 -6.696 
473 0 1 0 -2.4248711305964106 0.0 -6.696 
474 0 1 0 -2.4248711305964106 1.4 -6.696 
475 0 1 0 -1.2124355652981964 2.0999999999999996 -6.696 
476 0 1 0 -1.2124355652981964 3.4999999999999996 -6.696 
477 0 1 0 1.7763568394002505e-14 0.0 -6.696 
478 0 1 0 1.7763568394002505e-14 1.4 -6.696 
479 0 1 0 1.212435565298232 2.0999999999999996 -6.696 
480 0 1 0 1.212435565298232 3.4999999999999996 -6.696 
481 0 1 0 2.424871130596446 0.0 -6.696 
482 0 1 0 2.424871130596446 1.4 -6.696 
483 0 1 0 3.6373066958946603 2.0999999999999996 -6.696 
484 0 1 0 3.6373066958946603 3.4999999999999996 -6.696 
485 0 1 0 4.849742261192874 0.0 -6.696 
486 0 1 0 4.849742261192874 1.4 -6.696 
487 0 1 0 6.062177826491089 2.0999999999999996 -6.696 
488 0 1 0 6.062177826491089 3.4999999999999996 -6.696 
489 0 1 0 7.274613391789303 0.0 -6.696 
490 0 1 0 7.274613391789303 1.4 -6.696 
491 0 1 0 8.487048957087516 2.0999999999999996 -6.696 
492 0 1 0 8.487048957087516 3.4999999999999996 -6.696 
493 0 1 0 9.699484522385731 0.0 -6.696 
494 0 1 0 9.699484522385731 1.4 -6.696 
495 0 1 0 10.911920087683946 2.0999999999999996 -6.696 
496 0 1 0 10.911920087683946 3.4999999999999996 -6.696 
497 0 1 0 12.12435565298216 0.0 -6.696 
498 0 1 0 12.12435565298216 1.4 -6.696 
499 0 1 0 13.336791218280375 2.0999999999999996 -6.696 
500 0 1 0 13.336791218280375 3.4999999999999996 -6.696 
501 0 1 0 14.54922678357859 0.0 -6.696 
502 0 1 0 14.54922678357859 1.4 -6.696 
503 0 1 0 15.761662348876804 2.0999999999999996 -6.696 
504 0 1 0 15.761662348876804 3.4999999999999996 -6.696 
505 0 1 0 16.97409791417502 0.0 -6.696 
506 0 1 0 16.97409791417502 1.4 -6.696 
507 0 1 0 18.186533479473233 2.0999999999999996 -6.696 
508 0 1 0 18.186533479473233 3.4999999999999996 -6.696 
509 0 1 0 19.398969044771448 0.0 -6.696 
510 0 1 0 19.398969044771448 1.4 -6.696 
511 0 1 0 20.611404610069663 2.0999999999999996 -6.696 
512 0 1 0 20.611404610069663 3.4999999999999996 -6.696 
513 0 1 0 21.823840175367877 0.0 -6.696 
514 0 1 0 21.823840175367877 1.4 -6.696 
515 0 1 0 23.036275740666092 2.0999999999999996 -6.696 
516 0 1 0 23.036275740666092 3.4999999999999996 -6.696 
517 0 1 0 24.248711305964306 0.0 -6.696 
518 0 1 0 24.248711305964306 1.4 -6.696 
519 0 1 0 25.46114687126252 2.0999999999999996 -6.696 
520 0 1 0 25.46114687126252 3.4999999999999996 -6.696 
521 0 1 0 26.673582436560736 0.0 -6.696 
522 0 1 0 26.673582436560736 1.4 -6.696 
523 0 1 0 27.88601800185895 2.0999999999999996 -6.696 
524 0 1 0 27.88601800185895 3.4999999999999996 -6.696 
525 0 1 0 29.098453567157165 0.0 -6.696 
526 0 1 0 29.098453567157165 1.4 -6.696 
527 0 1 0 30.31088913245538 2.0999999999999996 -6.696 
528 0 1 0 30.31088913245538 3.4999999999999996 -6.696 
529 0 1 0 31.523324697753594 0.0 -6.696 
530 0 1 0 31.523324697753594 1.4 -6.696 
531 0 1 0 32.73576026305181 2.0999999999999996 -6.696 
532 0 1 0 32.73576026305181 3.4999999999999996 -6.696 
533 0 1 0 33.94819582835002 0.0 -6.696 
534 0 1 0 33.94819582835002 1.4 -6.696 
535 0 1 0 35.16063139364824 2.0999999999999996 -6.696 
536 0 1 0 35.16063139364824 3.4999999999999996 -6.696 
537 0 1 0 36.37306695894645 0.0 -6.696 
538 0 1 0 36.37306695894645 1.4 -6.696 
539 0 1 0 37.58550252424467 2.0999999999999996 -6.696 
540 0 1 0 37.58550252424467 3.4999999999999996 -6.696 
541 0 1 0 38.79793808954288 0.0 -6.696 
542 0 1 0 38.79793808954288 1.4 -6.696 
543 0 1 0 40.010373654841096 2.0999999999999996 -6.696 
544 0 1 0 40.010373654841096 3.4999999999999996 -6.696 
545 0 1 0 -41.222809220139276 4.199999999999999 -6.696 
546 0 1 0 -41.222809220139276 5.6 -6.696 
547 0 1 0 -40.01037365484106 6.299999999999999 -6.696 