# LAMMPS data file 

1000 atoms

2 atom types

-14.2 14.2 xlo xhi
-14.2 14.2 ylo yhi
-14.2 14.2 zlo zhi

Atoms

1 1 1 1.0 -12.78 -12.78 -12.78 
2 1 2 -1.0 -12.78 -9.94 -12.78 
3 1 2 -1.0 -9.94 -12.78 -12.78 
4 1 1 1.0 -9.94 -9.94 -12.78 
5 1 2 -1.0 -12.78 -12.78 -9.94 
6 1 1 1.0 -12.78 -9.94 -9.94 
7 1 1 1.0 -9.94 -12.78 -9.94 
8 1 2 -1.0 -9.94 -9.94 -9.94 
9 1 1 1.0 -12.78 -12.78 -7.1 
10 1 2 -1.0 -12.78 -9.94 -7.1 
11 1 2 -1.0 -9.94 -12.78 -7.1 
12 1 1 1.0 -9.94 -9.94 -7.1 
13 1 2 -1.0 -12.78 -12.78 -4.26 
14 1 1 1.0 -12.78 -9.94 -4.26 
15 1 1 1.0 -9.94 -12.78 -4.26 
16 1 2 -1.0 -9.94 -9.94 -4.26 
17 1 1 1.0 -12.78 -12.78 -1.42 
18 1 2 -1.0 -12.78 -9.94 -1.42 
19 1 2 -1.0 -9.94 -12.78 -1.42 
20 1 1 1.0 -9.94 -9.94 -1.42 
21 1 2 -1.0 -12.78 -12.78 1.42 
22 1 1 1.0 -12.78 -9.94 1.42 
23 1 1 1.0 -9.94 -12.78 1.42 
24 1 2 -1.0 -9.94 -9.94 1.42 
25 1 1 1.0 -12.78 -12.78 4.26 
26 1 2 -1.0 -12.78 -9.94 4.26 
27 1 2 -1.0 -9.94 -12.78 4.26 
28 1 1 1.0 -9.94 -9.94 4.26 
29 1 2 -1.0 -12.78 -12.78 7.1 
30 1 1 1.0 -12.78 -9.94 7.1 
31 1 1 1.0 -9.94 -12.78 7.1 
32 1 2 -1.0 -9.94 -9.94 7.1 
33 1 1 1.0 -12.78 -12.78 9.94 
34 1 2 -1.0 -12.78 -9.94 9.94 
35 1 2 -1.0 -9.94 -12.78 9.94 
36 1 1 1.0 -9.94 -9.94 9.94 
37 1 2 -1.0 -12.78 -12.78 12.78 
38 1 1 1.0 -12.78 -9.94 12.78 
39 1 1 1.0 -9.94 -12.78 12.78 
40 1 2 -1.0 -9.94 -9.94 12.78 
41 1 1 1.0 -12.78 -7.1 -12.78 
42 1 2 -1.0 -12.78 -4.26 -12.78 
43 1 2 -1.0 -9.94 -7.1 -12.78 
44 1 1 1.0 -9.94 -4.26 -12.78 
45 1 2 -1.0 -12.78 -7.1 -9.94 
46 1 1 1.0 -12.78 -4.26 -9.94 
47 1 1 1.0 -9.94 -7.1 -9.94 
48 1 2 -1.0 -9.94 -4.26 -9.94 
49 1 1 1.0 -12.78 -7.1 -7.1 
50 1 2 -1.0 -12.78 -4.26 -7.1 
51 1 2 -1.0 -9.94 -7.1 -7.1 
52 1 1 1.0 -9.94 -4.26 -7.1 
53 1 2 -1.0 -12.78 -7.1 -4.26 
54 1 1 1.0 -12.78 -4.26 -4.26 
55 1 1 1.0 -9.94 -7.1 -4.26 
56 1 2 -1.0 -9.94 -4.26 -4.26 
57 1 1 1.0 -12.78 -7.1 -1.42 
58 1 2 -1.0 -12.78 -4.26 -1.42 
59 1 2 -1.0 -9.94 -7.1 -1.42 
60 1 1 1.0 -9.94 -4.26 -1.42 
61 1 2 -1.0 -12.78 -7.1 1.42 
62 1 1 1.0 -12.78 -4.26 1.42 
63 1 1 1.0 -9.94 -7.1 1.42 
64 1 2 -1.0 -9.94 -4.26 1.42 
65 1 1 1.0 -12.78 -7.1 4.26 
66 1 2 -1.0 -12.78 -4.26 4.26 
67 1 2 -1.0 -9.94 -7.1 4.26 
68 1 1 1.0 -9.94 -4.26 4.26 
69 1 2 -1.0 -12.78 -7.1 7.1 
70 1 1 1.0 -12.78 -4.26 7.1 
71 1 1 1.0 -9.94 -7.1 7.1 
72 1 2 -1.0 -9.94 -4.26 7.1 
73 1 1 1.0 -12.78 -7.1 9.94 
74 1 2 -1.0 -12.78 -4.26 9.94 
75 1 2 -1.0 -9.94 -7.1 9.94 
76 1 1 1.0 -9.94 -4.26 9.94 
77 1 2 -1.0 -12.78 -7.1 12.78 
78 1 1 1.0 -12.78 -4.26 12.78 
79 1 1 1.0 -9.94 -7.1 12.78 
80 1 2 -1.0 -9.94 -4.26 12.78 
81 1 1 1.0 -12.78 -1.42 -12.78 
82 1 2 -1.0 -12.78 1.42 -12.78 
83 1 2 -1.0 -9.94 -1.42 -12.78 
84 1 1 1.0 -9.94 1.42 -12.78 
85 1 2 -1.0 -12.78 -1.42 -9.94 
86 1 1 1.0 -12.78 1.42 -9.94 
87 1 1 1.0 -9.94 -1.42 -9.94 
88 1 2 -1.0 -9.94 1.42 -9.94 
89 1 1 1.0 -12.78 -1.42 -7.1 
90 1 2 -1.0 -12.78 1.42 -7.1 
91 1 2 -1.0 -9.94 -1.42 -7.1 
92 1 1 1.0 -9.94 1.42 -7.1 
93 1 2 -1.0 -12.78 -1.42 -4.26 
94 1 1 1.0 -12.78 1.42 -4.26 
95 1 1 1.0 -9.94 -1.42 -4.26 
96 1 2 -1.0 -9.94 1.42 -4.26 
97 1 1 1.0 -12.78 -1.42 -1.42 
98 1 2 -1.0 -12.78 1.42 -1.42 
99 1 2 -1.0 -9.94 -1.42 -1.42 
100 1 1 1.0 -9.94 1.42 -1.42 
101 1 2 -1.0 -12.78 -1.42 1.42 
102 1 1 1.0 -12.78 1.42 1.42 
103 1 1 1.0 -9.94 -1.42 1.42 
104 1 2 -1.0 -9.94 1.42 1.42 
105 1 1 1.0 -12.78 -1.42 4.26 
106 1 2 -1.0 -12.78 1.42 4.26 
107 1 2 -1.0 -9.94 -1.42 4.26 
108 1 1 1.0 -9.94 1.42 4.26 
109 1 2 -1.0 -12.78 -1.42 7.1 
110 1 1 1.0 -12.78 1.42 7.1 
111 1 1 1.0 -9.94 -1.42 7.1 
112 1 2 -1.0 -9.94 1.42 7.1 
113 1 1 1.0 -12.78 -1.42 9.94 
114 1 2 -1.0 -12.78 1.42 9.94 
115 1 2 -1.0 -9.94 -1.42 9.94 
116 1 1 1.0 -9.94 1.42 9.94 
117 1 2 -1.0 -12.78 -1.42 12.78 
118 1 1 1.0 -12.78 1.42 12.78 
119 1 1 1.0 -9.94 -1.42 12.78 
120 1 2 -1.0 -9.94 1.42 12.78 
121 1 1 1.0 -12.78 4.26 -12.78 
122 1 2 -1.0 -12.78 7.1 -12.78 
123 1 2 -1.0 -9.94 4.26 -12.78 
124 1 1 1.0 -9.94 7.1 -12.78 
125 1 2 -1.0 -12.78 4.26 -9.94 
126 1 1 1.0 -12.78 7.1 -9.94 
127 1 1 1.0 -9.94 4.26 -9.94 
128 1 2 -1.0 -9.94 7.1 -9.94 
129 1 1 1.0 -12.78 4.26 -7.1 
130 1 2 -1.0 -12.78 7.1 -7.1 
131 1 2 -1.0 -9.94 4.26 -7.1 
132 1 1 1.0 -9.94 7.1 -7.1 
133 1 2 -1.0 -12.78 4.26 -4.26 
134 1 1 1.0 -12.78 7.1 -4.26 
135 1 1 1.0 -9.94 4.26 -4.26 
136 1 2 -1.0 -9.94 7.1 -4.26 
137 1 1 1.0 -12.78 4.26 -1.42 
138 1 2 -1.0 -12.78 7.1 -1.42 
139 1 2 -1.0 -9.94 4.26 -1.42 
140 1 1 1.0 -9.94 7.1 -1.42 
141 1 2 -1.0 -12.78 4.26 1.42 
142 1 1 1.0 -12.78 7.1 1.42 
143 1 1 1.0 -9.94 4.26 1.42 
144 1 2 -1.0 -9.94 7.1 1.42 
145 1 1 1.0 -12.78 4.26 4.26 
146 1 2 -1.0 -12.78 7.1 4.26 
147 1 2 -1.0 -9.94 4.26 4.26 
148 1 1 1.0 -9.94 7.1 4.26 
149 1 2 -1.0 -12.78 4.26 7.1 
150 1 1 1.0 -12.78 7.1 7.1 
151 1 1 1.0 -9.94 4.26 7.1 
152 1 2 -1.0 -9.94 7.1 7.1 
153 1 1 1.0 -12.78 4.26 9.94 
154 1 2 -1.0 -12.78 7.1 9.94 
155 1 2 -1.0 -9.94 4.26 9.94 
156 1 1 1.0 -9.94 7.1 9.94 
157 1 2 -1.0 -12.78 4.26 12.78 
158 1 1 1.0 -12.78 7.1 12.78 
159 1 1 1.0 -9.94 4.26 12.78 
160 1 2 -1.0 -9.94 7.1 12.78 
161 1 1 1.0 -12.78 9.94 -12.78 
162 1 2 -1.0 -12.78 12.78 -12.78 
163 1 2 -1.0 -9.94 9.94 -12.78 
164 1 1 1.0 -9.94 12.78 -12.78 
165 1 2 -1.0 -12.78 9.94 -9.94 
166 1 1 1.0 -12.78 12.78 -9.94 
167 1 1 1.0 -9.94 9.94 -9.94 
168 1 2 -1.0 -9.94 12.78 -9.94 
169 1 1 1.0 -12.78 9.94 -7.1 
170 1 2 -1.0 -12.78 12.78 -7.1 
171 1 2 -1.0 -9.94 9.94 -7.1 
172 1 1 1.0 -9.94 12.78 -7.1 
173 1 2 -1.0 -12.78 9.94 -4.26 
174 1 1 1.0 -12.78 12.78 -4.26 
175 1 1 1.0 -9.94 9.94 -4.26 
176 1 2 -1.0 -9.94 12.78 -4.26 
177 1 1 1.0 -12.78 9.94 -1.42 
178 1 2 -1.0 -12.78 12.78 -1.42 
179 1 2 -1.0 -9.94 9.94 -1.42 
180 1 1 1.0 -9.94 12.78 -1.42 
181 1 2 -1.0 -12.78 9.94 1.42 
182 1 1 1.0 -12.78 12.78 1.42 
183 1 1 1.0 -9.94 9.94 1.42 
184 1 2 -1.0 -9.94 12.78 1.42 
185 1 1 1.0 -12.78 9.94 4.26 
186 1 2 -1.0 -12.78 12.78 4.26 
187 1 2 -1.0 -9.94 9.94 4.26 
188 1 1 1.0 -9.94 12.78 4.26 
189 1 2 -1.0 -12.78 9.94 7.1 
190 1 1 1.0 -12.78 12.78 7.1 
191 1 1 1.0 -9.94 9.94 7.1 
192 1 2 -1.0 -9.94 12.78 7.1 
193 1 1 1.0 -12.78 9.94 9.94 
194 1 2 -1.0 -12.78 12.78 9.94 
195 1 2 -1.0 -9.94 9.94 9.94 
196 1 1 1.0 -9.94 12.78 9.94 
197 1 2 -1.0 -12.78 9.94 12.78 
198 1 1 1.0 -12.78 12.78 12.78 
199 1 1 1.0 -9.94 9.94 12.78 
200 1 2 -1.0 -9.94 12.78 12.78 
201 1 1 1.0 -7.1 -12.78 -12.78 
202 1 2 -1.0 -7.1 -9.94 -12.78 
203 1 2 -1.0 -4.26 -12.78 -12.78 
204 1 1 1.0 -4.26 -9.94 -12.78 
205 1 2 -1.0 -7.1 -12.78 -9.94 
206 1 1 1.0 -7.1 -9.94 -9.94 
207 1 1 1.0 -4.26 -12.78 -9.94 
208 1 2 -1.0 -4.26 -9.94 -9.94 
209 1 1 1.0 -7.1 -12.78 -7.1 
210 1 2 -1.0 -7.1 -9.94 -7.1 
211 1 2 -1.0 -4.26 -12.78 -7.1 
212 1 1 1.0 -4.26 -9.94 -7.1 
213 1 2 -1.0 -7.1 -12.78 -4.26 
214 1 1 1.0 -7.1 -9.94 -4.26 
215 1 1 1.0 -4.26 -12.78 -4.26 
216 1 2 -1.0 -4.26 -9.94 -4.26 
217 1 1 1.0 -7.1 -12.78 -1.42 
218 1 2 -1.0 -7.1 -9.94 -1.42 
219 1 2 -1.0 -4.26 -12.78 -1.42 
220 1 1 1.0 -4.26 -9.94 -1.42 
221 1 2 -1.0 -7.1 -12.78 1.42 
222 1 1 1.0 -7.1 -9.94 1.42 
223 1 1 1.0 -4.26 -12.78 1.42 
224 1 2 -1.0 -4.26 -9.94 1.42 
225 1 1 1.0 -7.1 -12.78 4.26 
226 1 2 -1.0 -7.1 -9.94 4.26 
227 1 2 -1.0 -4.26 -12.78 4.26 
228 1 1 1.0 -4.26 -9.94 4.26 
229 1 2 -1.0 -7.1 -12.78 7.1 
230 1 1 1.0 -7.1 -9.94 7.1 
231 1 1 1.0 -4.26 -12.78 7.1 
232 1 2 -1.0 -4.26 -9.94 7.1 
233 1 1 1.0 -7.1 -12.78 9.94 
234 1 2 -1.0 -7.1 -9.94 9.94 
235 1 2 -1.0 -4.26 -12.78 9.94 
236 1 1 1.0 -4.26 -9.94 9.94 
237 1 2 -1.0 -7.1 -12.78 12.78 
238 1 1 1.0 -7.1 -9.94 12.78 
239 1 1 1.0 -4.26 -12.78 12.78 
240 1 2 -1.0 -4.26 -9.94 12.78 
241 1 1 1.0 -7.1 -7.1 -12.78 
242 1 2 -1.0 -7.1 -4.26 -12.78 
243 1 2 -1.0 -4.26 -7.1 -12.78 
244 1 1 1.0 -4.26 -4.26 -12.78 
245 1 2 -1.0 -7.1 -7.1 -9.94 
246 1 1 1.0 -7.1 -4.26 -9.94 
247 1 1 1.0 -4.26 -7.1 -9.94 
248 1 2 -1.0 -4.26 -4.26 -9.94 
249 1 1 1.0 -7.1 -7.1 -7.1 
250 1 2 -1.0 -7.1 -4.26 -7.1 
251 1 2 -1.0 -4.26 -7.1 -7.1 
252 1 1 1.0 -4.26 -4.26 -7.1 
253 1 2 -1.0 -7.1 -7.1 -4.26 
254 1 1 1.0 -7.1 -4.26 -4.26 
255 1 1 1.0 -4.26 -7.1 -4.26 
256 1 2 -1.0 -4.26 -4.26 -4.26 
257 1 1 1.0 -7.1 -7.1 -1.42 
258 1 2 -1.0 -7.1 -4.26 -1.42 
259 1 2 -1.0 -4.26 -7.1 -1.42 
260 1 1 1.0 -4.26 -4.26 -1.42 
261 1 2 -1.0 -7.1 -7.1 1.42 
262 1 1 1.0 -7.1 -4.26 1.42 
263 1 1 1.0 -4.26 -7.1 1.42 
264 1 2 -1.0 -4.26 -4.26 1.42 
265 1 1 1.0 -7.1 -7.1 4.26 
266 1 2 -1.0 -7.1 -4.26 4.26 
267 1 2 -1.0 -4.26 -7.1 4.26 
268 1 1 1.0 -4.26 -4.26 4.26 
269 1 2 -1.0 -7.1 -7.1 7.1 
270 1 1 1.0 -7.1 -4.26 7.1 
271 1 1 1.0 -4.26 -7.1 7.1 
272 1 2 -1.0 -4.26 -4.26 7.1 
273 1 1 1.0 -7.1 -7.1 9.94 
274 1 2 -1.0 -7.1 -4.26 9.94 
275 1 2 -1.0 -4.26 -7.1 9.94 
276 1 1 1.0 -4.26 -4.26 9.94 
277 1 2 -1.0 -7.1 -7.1 12.78 
278 1 1 1.0 -7.1 -4.26 12.78 
279 1 1 1.0 -4.26 -7.1 12.78 
280 1 2 -1.0 -4.26 -4.26 12.78 
281 1 1 1.0 -7.1 -1.42 -12.78 
282 1 2 -1.0 -7.1 1.42 -12.78 
283 1 2 -1.0 -4.26 -1.42 -12.78 
284 1 1 1.0 -4.26 1.42 -12.78 
285 1 2 -1.0 -7.1 -1.42 -9.94 
286 1 1 1.0 -7.1 1.42 -9.94 
287 1 1 1.0 -4.26 -1.42 -9.94 
288 1 2 -1.0 -4.26 1.42 -9.94 
289 1 1 1.0 -7.1 -1.42 -7.1 
290 1 2 -1.0 -7.1 1.42 -7.1 
291 1 2 -1.0 -4.26 -1.42 -7.1 
292 1 1 1.0 -4.26 1.42 -7.1 
293 1 2 -1.0 -7.1 -1.42 -4.26 
294 1 1 1.0 -7.1 1.42 -4.26 
295 1 1 1.0 -4.26 -1.42 -4.26 
296 1 2 -1.0 -4.26 1.42 -4.26 
297 1 1 1.0 -7.1 -1.42 -1.42 
298 1 2 -1.0 -7.1 1.42 -1.42 
299 1 2 -1.0 -4.26 -1.42 -1.42 
300 1 1 1.0 -4.26 1.42 -1.42 
301 1 2 -1.0 -7.1 -1.42 1.42 
302 1 1 1.0 -7.1 1.42 1.42 
303 1 1 1.0 -4.26 -1.42 1.42 
304 1 2 -1.0 -4.26 1.42 1.42 
305 1 1 1.0 -7.1 -1.42 4.26 
306 1 2 -1.0 -7.1 1.42 4.26 
307 1 2 -1.0 -4.26 -1.42 4.26 
308 1 1 1.0 -4.26 1.42 4.26 
309 1 2 -1.0 -7.1 -1.42 7.1 
310 1 1 1.0 -7.1 1.42 7.1 
311 1 1 1.0 -4.26 -1.42 7.1 
312 1 2 -1.0 -4.26 1.42 7.1 
313 1 1 1.0 -7.1 -1.42 9.94 
314 1 2 -1.0 -7.1 1.42 9.94 
315 1 2 -1.0 -4.26 -1.42 9.94 
316 1 1 1.0 -4.26 1.42 9.94 
317 1 2 -1.0 -7.1 -1.42 12.78 
318 1 1 1.0 -7.1 1.42 12.78 
319 1 1 1.0 -4.26 -1.42 12.78 
320 1 2 -1.0 -4.26 1.42 12.78 
321 1 1 1.0 -7.1 4.26 -12.78 
322 1 2 -1.0 -7.1 7.1 -12.78 
323 1 2 -1.0 -4.26 4.26 -12.78 
324 1 1 1.0 -4.26 7.1 -12.78 
325 1 2 -1.0 -7.1 4.26 -9.94 
326 1 1 1.0 -7.1 7.1 -9.94 
327 1 1 1.0 -4.26 4.26 -9.94 
328 1 2 -1.0 -4.26 7.1 -9.94 
329 1 1 1.0 -7.1 4.26 -7.1 
330 1 2 -1.0 -7.1 7.1 -7.1 
331 1 2 -1.0 -4.26 4.26 -7.1 
332 1 1 1.0 -4.26 7.1 -7.1 
333 1 2 -1.0 -7.1 4.26 -4.26 
334 1 1 1.0 -7.1 7.1 -4.26 
335 1 1 1.0 -4.26 4.26 -4.26 
336 1 2 -1.0 -4.26 7.1 -4.26 
337 1 1 1.0 -7.1 4.26 -1.42 
338 1 2 -1.0 -7.1 7.1 -1.42 
339 1 2 -1.0 -4.26 4.26 -1.42 
340 1 1 1.0 -4.26 7.1 -1.42 
341 1 2 -1.0 -7.1 4.26 1.42 
342 1 1 1.0 -7.1 7.1 1.42 
343 1 1 1.0 -4.26 4.26 1.42 
344 1 2 -1.0 -4.26 7.1 1.42 
345 1 1 1.0 -7.1 4.26 4.26 
346 1 2 -1.0 -7.1 7.1 4.26 
347 1 2 -1.0 -4.26 4.26 4.26 
348 1 1 1.0 -4.26 7.1 4.26 
349 1 2 -1.0 -7.1 4.26 7.1 
350 1 1 1.0 -7.1 7.1 7.1 
351 1 1 1.0 -4.26 4.26 7.1 
352 1 2 -1.0 -4.26 7.1 7.1 
353 1 1 1.0 -7.1 4.26 9.94 
354 1 2 -1.0 -7.1 7.1 9.94 
355 1 2 -1.0 -4.26 4.26 9.94 
356 1 1 1.0 -4.26 7.1 9.94 
357 1 2 -1.0 -7.1 4.26 12.78 
358 1 1 1.0 -7.1 7.1 12.78 
359 1 1 1.0 -4.26 4.26 12.78 
360 1 2 -1.0 -4.26 7.1 12.78 
361 1 1 1.0 -7.1 9.94 -12.78 
362 1 2 -1.0 -7.1 12.78 -12.78 
363 1 2 -1.0 -4.26 9.94 -12.78 
364 1 1 1.0 -4.26 12.78 -12.78 
365 1 2 -1.0 -7.1 9.94 -9.94 
366 1 1 1.0 -7.1 12.78 -9.94 
367 1 1 1.0 -4.26 9.94 -9.94 
368 1 2 -1.0 -4.26 12.78 -9.94 
369 1 1 1.0 -7.1 9.94 -7.1 
370 1 2 -1.0 -7.1 12.78 -7.1 
371 1 2 -1.0 -4.26 9.94 -7.1 
372 1 1 1.0 -4.26 12.78 -7.1 
373 1 2 -1.0 -7.1 9.94 -4.26 
374 1 1 1.0 -7.1 12.78 -4.26 
375 1 1 1.0 -4.26 9.94 -4.26 
376 1 2 -1.0 -4.26 12.78 -4.26 
377 1 1 1.0 -7.1 9.94 -1.42 
378 1 2 -1.0 -7.1 12.78 -1.42 
379 1 2 -1.0 -4.26 9.94 -1.42 
380 1 1 1.0 -4.26 12.78 -1.42 
381 1 2 -1.0 -7.1 9.94 1.42 
382 1 1 1.0 -7.1 12.78 1.42 
383 1 1 1.0 -4.26 9.94 1.42 
384 1 2 -1.0 -4.26 12.78 1.42 
385 1 1 1.0 -7.1 9.94 4.26 
386 1 2 -1.0 -7.1 12.78 4.26 
387 1 2 -1.0 -4.26 9.94 4.26 
388 1 1 1.0 -4.26 12.78 4.26 
389 1 2 -1.0 -7.1 9.94 7.1 
390 1 1 1.0 -7.1 12.78 7.1 
391 1 1 1.0 -4.26 9.94 7.1 
392 1 2 -1.0 -4.26 12.78 7.1 
393 1 1 1.0 -7.1 9.94 9.94 
394 1 2 -1.0 -7.1 12.78 9.94 
395 1 2 -1.0 -4.26 9.94 9.94 
396 1 1 1.0 -4.26 12.78 9.94 
397 1 2 -1.0 -7.1 9.94 12.78 
398 1 1 1.0 -7.1 12.78 12.78 
399 1 1 1.0 -4.26 9.94 12.78 
400 1 2 -1.0 -4.26 12.78 12.78 
401 1 1 1.0 -1.42 -12.78 -12.78 
402 1 2 -1.0 -1.42 -9.94 -12.78 
403 1 2 -1.0 1.42 -12.78 -12.78 
404 1 1 1.0 1.42 -9.94 -12.78 
405 1 2 -1.0 -1.42 -12.78 -9.94 
406 1 1 1.0 -1.42 -9.94 -9.94 
407 1 1 1.0 1.42 -12.78 -9.94 
408 1 2 -1.0 1.42 -9.94 -9.94 
409 1 1 1.0 -1.42 -12.78 -7.1 
410 1 2 -1.0 -1.42 -9.94 -7.1 
411 1 2 -1.0 1.42 -12.78 -7.1 
412 1 1 1.0 1.42 -9.94 -7.1 
413 1 2 -1.0 -1.42 -12.78 -4.26 
414 1 1 1.0 -1.42 -9.94 -4.26 
415 1 1 1.0 1.42 -12.78 -4.26 
416 1 2 -1.0 1.42 -9.94 -4.26 
417 1 1 1.0 -1.42 -12.78 -1.42 
418 1 2 -1.0 -1.42 -9.94 -1.42 
419 1 2 -1.0 1.42 -12.78 -1.42 
420 1 1 1.0 1.42 -9.94 -1.42 
421 1 2 -1.0 -1.42 -12.78 1.42 
422 1 1 1.0 -1.42 -9.94 1.42 
423 1 1 1.0 1.42 -12.78 1.42 
424 1 2 -1.0 1.42 -9.94 1.42 
425 1 1 1.0 -1.42 -12.78 4.26 
426 1 2 -1.0 -1.42 -9.94 4.26 
427 1 2 -1.0 1.42 -12.78 4.26 
428 1 1 1.0 1.42 -9.94 4.26 
429 1 2 -1.0 -1.42 -12.78 7.1 
430 1 1 1.0 -1.42 -9.94 7.1 
431 1 1 1.0 1.42 -12.78 7.1 
432 1 2 -1.0 1.42 -9.94 7.1 
433 1 1 1.0 -1.42 -12.78 9.94 
434 1 2 -1.0 -1.42 -9.94 9.94 
435 1 2 -1.0 1.42 -12.78 9.94 
436 1 1 1.0 1.42 -9.94 9.94 
437 1 2 -1.0 -1.42 -12.78 12.78 
438 1 1 1.0 -1.42 -9.94 12.78 
439 1 1 1.0 1.42 -12.78 12.78 
440 1 2 -1.0 1.42 -9.94 12.78 
441 1 1 1.0 -1.42 -7.1 -12.78 
442 1 2 -1.0 -1.42 -4.26 -12.78 
443 1 2 -1.0 1.42 -7.1 -12.78 
444 1 1 1.0 1.42 -4.26 -12.78 
445 1 2 -1.0 -1.42 -7.1 -9.94 
446 1 1 1.0 -1.42 -4.26 -9.94 
447 1 1 1.0 1.42 -7.1 -9.94 
448 1 2 -1.0 1.42 -4.26 -9.94 
449 1 1 1.0 -1.42 -7.1 -7.1 
450 1 2 -1.0 -1.42 -4.26 -7.1 
451 1 2 -1.0 1.42 -7.1 -7.1 
452 1 1 1.0 1.42 -4.26 -7.1 
453 1 2 -1.0 -1.42 -7.1 -4.26 
454 1 1 1.0 -1.42 -4.26 -4.26 
455 1 1 1.0 1.42 -7.1 -4.26 
456 1 2 -1.0 1.42 -4.26 -4.26 
457 1 1 1.0 -1.42 -7.1 -1.42 
458 1 2 -1.0 -1.42 -4.26 -1.42 
459 1 2 -1.0 1.42 -7.1 -1.42 
460 1 1 1.0 1.42 -4.26 -1.42 
461 1 2 -1.0 -1.42 -7.1 1.42 
462 1 1 1.0 -1.42 -4.26 1.42 
463 1 1 1.0 1.42 -7.1 1.42 
464 1 2 -1.0 1.42 -4.26 1.42 
465 1 1 1.0 -1.42 -7.1 4.26 
466 1 2 -1.0 -1.42 -4.26 4.26 
467 1 2 -1.0 1.42 -7.1 4.26 
468 1 1 1.0 1.42 -4.26 4.26 
469 1 2 -1.0 -1.42 -7.1 7.1 
470 1 1 1.0 -1.42 -4.26 7.1 
471 1 1 1.0 1.42 -7.1 7.1 
472 1 2 -1.0 1.42 -4.26 7.1 
473 1 1 1.0 -1.42 -7.1 9.94 
474 1 2 -1.0 -1.42 -4.26 9.94 
475 1 2 -1.0 1.42 -7.1 9.94 
476 1 1 1.0 1.42 -4.26 9.94 
477 1 2 -1.0 -1.42 -7.1 12.78 
478 1 1 1.0 -1.42 -4.26 12.78 
479 1 1 1.0 1.42 -7.1 12.78 
480 1 2 -1.0 1.42 -4.26 12.78 
481 1 1 1.0 -1.42 -1.42 -12.78 
482 1 2 -1.0 -1.42 1.42 -12.78 
483 1 2 -1.0 1.42 -1.42 -12.78 
484 1 1 1.0 1.42 1.42 -12.78 
485 1 2 -1.0 -1.42 -1.42 -9.94 
486 1 1 1.0 -1.42 1.42 -9.94 
487 1 1 1.0 1.42 -1.42 -9.94 
488 1 2 -1.0 1.42 1.42 -9.94 
489 1 1 1.0 -1.42 -1.42 -7.1 
490 1 2 -1.0 -1.42 1.42 -7.1 
491 1 2 -1.0 1.42 -1.42 -7.1 
492 1 1 1.0 1.42 1.42 -7.1 
493 1 2 -1.0 -1.42 -1.42 -4.26 
494 1 1 1.0 -1.42 1.42 -4.26 
495 1 1 1.0 1.42 -1.42 -4.26 
496 1 2 -1.0 1.42 1.42 -4.26 
497 1 1 1.0 -1.42 -1.42 -1.42 
498 1 2 -1.0 -1.42 1.42 -1.42 
499 1 2 -1.0 1.42 -1.42 -1.42 
500 1 1 1.0 1.42 1.42 -1.42 
501 1 2 -1.0 -1.42 -1.42 1.42 
502 1 1 1.0 -1.42 1.42 1.42 
503 1 1 1.0 1.42 -1.42 1.42 
504 1 2 -1.0 1.42 1.42 1.42 
505 1 1 1.0 -1.42 -1.42 4.26 
506 1 2 -1.0 -1.42 1.42 4.26 
507 1 2 -1.0 1.42 -1.42 4.26 
508 1 1 1.0 1.42 1.42 4.26 
509 1 2 -1.0 -1.42 -1.42 7.1 
510 1 1 1.0 -1.42 1.42 7.1 
511 1 1 1.0 1.42 -1.42 7.1 
512 1 2 -1.0 1.42 1.42 7.1 
513 1 1 1.0 -1.42 -1.42 9.94 
514 1 2 -1.0 -1.42 1.42 9.94 
515 1 2 -1.0 1.42 -1.42 9.94 
516 1 1 1.0 1.42 1.42 9.94 
517 1 2 -1.0 -1.42 -1.42 12.78 
518 1 1 1.0 -1.42 1.42 12.78 
519 1 1 1.0 1.42 -1.42 12.78 
520 1 2 -1.0 1.42 1.42 12.78 
521 1 1 1.0 -1.42 4.26 -12.78 
522 1 2 -1.0 -1.42 7.1 -12.78 
523 1 2 -1.0 1.42 4.26 -12.78 
524 1 1 1.0 1.42 7.1 -12.78 
525 1 2 -1.0 -1.42 4.26 -9.94 
526 1 1 1.0 -1.42 7.1 -9.94 
527 1 1 1.0 1.42 4.26 -9.94 
528 1 2 -1.0 1.42 7.1 -9.94 
529 1 1 1.0 -1.42 4.26 -7.1 
530 1 2 -1.0 -1.42 7.1 -7.1 
531 1 2 -1.0 1.42 4.26 -7.1 
532 1 1 1.0 1.42 7.1 -7.1 
533 1 2 -1.0 -1.42 4.26 -4.26 
534 1 1 1.0 -1.42 7.1 -4.26 
535 1 1 1.0 1.42 4.26 -4.26 
536 1 2 -1.0 1.42 7.1 -4.26 
537 1 1 1.0 -1.42 4.26 -1.42 
538 1 2 -1.0 -1.42 7.1 -1.42 
539 1 2 -1.0 1.42 4.26 -1.42 
540 1 1 1.0 1.42 7.1 -1.42 
541 1 2 -1.0 -1.42 4.26 1.42 
542 1 1 1.0 -1.42 7.1 1.42 
543 1 1 1.0 1.42 4.26 1.42 
544 1 2 -1.0 1.42 7.1 1.42 
545 1 1 1.0 -1.42 4.26 4.26 
546 1 2 -1.0 -1.42 7.1 4.26 
547 1 2 -1.0 1.42 4.26 4.26 
548 1 1 1.0 1.42 7.1 4.26 
549 1 2 -1.0 -1.42 4.26 7.1 
550 1 1 1.0 -1.42 7.1 7.1 
551 1 1 1.0 1.42 4.26 7.1 
552 1 2 -1.0 1.42 7.1 7.1 
553 1 1 1.0 -1.42 4.26 9.94 
554 1 2 -1.0 -1.42 7.1 9.94 
555 1 2 -1.0 1.42 4.26 9.94 
556 1 1 1.0 1.42 7.1 9.94 
557 1 2 -1.0 -1.42 4.26 12.78 
558 1 1 1.0 -1.42 7.1 12.78 
559 1 1 1.0 1.42 4.26 12.78 
560 1 2 -1.0 1.42 7.1 12.78 
561 1 1 1.0 -1.42 9.94 -12.78 
562 1 2 -1.0 -1.42 12.78 -12.78 
563 1 2 -1.0 1.42 9.94 -12.78 
564 1 1 1.0 1.42 12.78 -12.78 
565 1 2 -1.0 -1.42 9.94 -9.94 
566 1 1 1.0 -1.42 12.78 -9.94 
567 1 1 1.0 1.42 9.94 -9.94 
568 1 2 -1.0 1.42 12.78 -9.94 
569 1 1 1.0 -1.42 9.94 -7.1 
570 1 2 -1.0 -1.42 12.78 -7.1 
571 1 2 -1.0 1.42 9.94 -7.1 
572 1 1 1.0 1.42 12.78 -7.1 
573 1 2 -1.0 -1.42 9.94 -4.26 
574 1 1 1.0 -1.42 12.78 -4.26 
575 1 1 1.0 1.42 9.94 -4.26 
576 1 2 -1.0 1.42 12.78 -4.26 
577 1 1 1.0 -1.42 9.94 -1.42 
578 1 2 -1.0 -1.42 12.78 -1.42 
579 1 2 -1.0 1.42 9.94 -1.42 
580 1 1 1.0 1.42 12.78 -1.42 
581 1 2 -1.0 -1.42 9.94 1.42 
582 1 1 1.0 -1.42 12.78 1.42 
583 1 1 1.0 1.42 9.94 1.42 
584 1 2 -1.0 1.42 12.78 1.42 
585 1 1 1.0 -1.42 9.94 4.26 
586 1 2 -1.0 -1.42 12.78 4.26 
587 1 2 -1.0 1.42 9.94 4.26 
588 1 1 1.0 1.42 12.78 4.26 
589 1 2 -1.0 -1.42 9.94 7.1 
590 1 1 1.0 -1.42 12.78 7.1 
591 1 1 1.0 1.42 9.94 7.1 
592 1 2 -1.0 1.42 12.78 7.1 
593 1 1 1.0 -1.42 9.94 9.94 
594 1 2 -1.0 -1.42 12.78 9.94 
595 1 2 -1.0 1.42 9.94 9.94 
596 1 1 1.0 1.42 12.78 9.94 
597 1 2 -1.0 -1.42 9.94 12.78 
598 1 1 1.0 -1.42 12.78 12.78 
599 1 1 1.0 1.42 9.94 12.78 
600 1 2 -1.0 1.42 12.78 12.78 
601 1 1 1.0 4.26 -12.78 -12.78 
602 1 2 -1.0 4.26 -9.94 -12.78 
603 1 2 -1.0 7.1 -12.78 -12.78 
604 1 1 1.0 7.1 -9.94 -12.78 
605 1 2 -1.0 4.26 -12.78 -9.94 
606 1 1 1.0 4.26 -9.94 -9.94 
607 1 1 1.0 7.1 -12.78 -9.94 
608 1 2 -1.0 7.1 -9.94 -9.94 
609 1 1 1.0 4.26 -12.78 -7.1 
610 1 2 -1.0 4.26 -9.94 -7.1 
611 1 2 -1.0 7.1 -12.78 -7.1 
612 1 1 1.0 7.1 -9.94 -7.1 
613 1 2 -1.0 4.26 -12.78 -4.26 
614 1 1 1.0 4.26 -9.94 -4.26 
615 1 1 1.0 7.1 -12.78 -4.26 
616 1 2 -1.0 7.1 -9.94 -4.26 
617 1 1 1.0 4.26 -12.78 -1.42 
618 1 2 -1.0 4.26 -9.94 -1.42 
619 1 2 -1.0 7.1 -12.78 -1.42 
620 1 1 1.0 7.1 -9.94 -1.42 
621 1 2 -1.0 4.26 -12.78 1.42 
622 1 1 1.0 4.26 -9.94 1.42 
623 1 1 1.0 7.1 -12.78 1.42 
624 1 2 -1.0 7.1 -9.94 1.42 
625 1 1 1.0 4.26 -12.78 4.26 
626 1 2 -1.0 4.26 -9.94 4.26 
627 1 2 -1.0 7.1 -12.78 4.26 
628 1 1 1.0 7.1 -9.94 4.26 
629 1 2 -1.0 4.26 -12.78 7.1 
630 1 1 1.0 4.26 -9.94 7.1 
631 1 1 1.0 7.1 -12.78 7.1 
632 1 2 -1.0 7.1 -9.94 7.1 
633 1 1 1.0 4.26 -12.78 9.94 
634 1 2 -1.0 4.26 -9.94 9.94 
635 1 2 -1.0 7.1 -12.78 9.94 
636 1 1 1.0 7.1 -9.94 9.94 
637 1 2 -1.0 4.26 -12.78 12.78 
638 1 1 1.0 4.26 -9.94 12.78 
639 1 1 1.0 7.1 -12.78 12.78 
640 1 2 -1.0 7.1 -9.94 12.78 
641 1 1 1.0 4.26 -7.1 -12.78 
642 1 2 -1.0 4.26 -4.26 -12.78 
643 1 2 -1.0 7.1 -7.1 -12.78 
644 1 1 1.0 7.1 -4.26 -12.78 
645 1 2 -1.0 4.26 -7.1 -9.94 
646 1 1 1.0 4.26 -4.26 -9.94 
647 1 1 1.0 7.1 -7.1 -9.94 
648 1 2 -1.0 7.1 -4.26 -9.94 
649 1 1 1.0 4.26 -7.1 -7.1 
650 1 2 -1.0 4.26 -4.26 -7.1 
651 1 2 -1.0 7.1 -7.1 -7.1 
652 1 1 1.0 7.1 -4.26 -7.1 
653 1 2 -1.0 4.26 -7.1 -4.26 
654 1 1 1.0 4.26 -4.26 -4.26 
655 1 1 1.0 7.1 -7.1 -4.26 
656 1 2 -1.0 7.1 -4.26 -4.26 
657 1 1 1.0 4.26 -7.1 -1.42 
658 1 2 -1.0 4.26 -4.26 -1.42 
659 1 2 -1.0 7.1 -7.1 -1.42 
660 1 1 1.0 7.1 -4.26 -1.42 
661 1 2 -1.0 4.26 -7.1 1.42 
662 1 1 1.0 4.26 -4.26 1.42 
663 1 1 1.0 7.1 -7.1 1.42 
664 1 2 -1.0 7.1 -4.26 1.42 
665 1 1 1.0 4.26 -7.1 4.26 
666 1 2 -1.0 4.26 -4.26 4.26 
667 1 2 -1.0 7.1 -7.1 4.26 
668 1 1 1.0 7.1 -4.26 4.26 
669 1 2 -1.0 4.26 -7.1 7.1 
670 1 1 1.0 4.26 -4.26 7.1 
671 1 1 1.0 7.1 -7.1 7.1 
672 1 2 -1.0 7.1 -4.26 7.1 
673 1 1 1.0 4.26 -7.1 9.94 
674 1 2 -1.0 4.26 -4.26 9.94 
675 1 2 -1.0 7.1 -7.1 9.94 
676 1 1 1.0 7.1 -4.26 9.94 
677 1 2 -1.0 4.26 -7.1 12.78 
678 1 1 1.0 4.26 -4.26 12.78 
679 1 1 1.0 7.1 -7.1 12.78 
680 1 2 -1.0 7.1 -4.26 12.78 
681 1 1 1.0 4.26 -1.42 -12.78 
682 1 2 -1.0 4.26 1.42 -12.78 
683 1 2 -1.0 7.1 -1.42 -12.78 
684 1 1 1.0 7.1 1.42 -12.78 
685 1 2 -1.0 4.26 -1.42 -9.94 
686 1 1 1.0 4.26 1.42 -9.94 
687 1 1 1.0 7.1 -1.42 -9.94 
688 1 2 -1.0 7.1 1.42 -9.94 
689 1 1 1.0 4.26 -1.42 -7.1 
690 1 2 -1.0 4.26 1.42 -7.1 
691 1 2 -1.0 7.1 -1.42 -7.1 
692 1 1 1.0 7.1 1.42 -7.1 
693 1 2 -1.0 4.26 -1.42 -4.26 
694 1 1 1.0 4.26 1.42 -4.26 
695 1 1 1.0 7.1 -1.42 -4.26 
696 1 2 -1.0 7.1 1.42 -4.26 
697 1 1 1.0 4.26 -1.42 -1.42 
698 1 2 -1.0 4.26 1.42 -1.42 
699 1 2 -1.0 7.1 -1.42 -1.42 
700 1 1 1.0 7.1 1.42 -1.42 
701 1 2 -1.0 4.26 -1.42 1.42 
702 1 1 1.0 4.26 1.42 1.42 
703 1 1 1.0 7.1 -1.42 1.42 
704 1 2 -1.0 7.1 1.42 1.42 
705 1 1 1.0 4.26 -1.42 4.26 
706 1 2 -1.0 4.26 1.42 4.26 
707 1 2 -1.0 7.1 -1.42 4.26 
708 1 1 1.0 7.1 1.42 4.26 
709 1 2 -1.0 4.26 -1.42 7.1 
710 1 1 1.0 4.26 1.42 7.1 
711 1 1 1.0 7.1 -1.42 7.1 
712 1 2 -1.0 7.1 1.42 7.1 
713 1 1 1.0 4.26 -1.42 9.94 
714 1 2 -1.0 4.26 1.42 9.94 
715 1 2 -1.0 7.1 -1.42 9.94 
716 1 1 1.0 7.1 1.42 9.94 
717 1 2 -1.0 4.26 -1.42 12.78 
718 1 1 1.0 4.26 1.42 12.78 
719 1 1 1.0 7.1 -1.42 12.78 
720 1 2 -1.0 7.1 1.42 12.78 
721 1 1 1.0 4.26 4.26 -12.78 
722 1 2 -1.0 4.26 7.1 -12.78 
723 1 2 -1.0 7.1 4.26 -12.78 
724 1 1 1.0 7.1 7.1 -12.78 
725 1 2 -1.0 4.26 4.26 -9.94 
726 1 1 1.0 4.26 7.1 -9.94 
727 1 1 1.0 7.1 4.26 -9.94 
728 1 2 -1.0 7.1 7.1 -9.94 
729 1 1 1.0 4.26 4.26 -7.1 
730 1 2 -1.0 4.26 7.1 -7.1 
731 1 2 -1.0 7.1 4.26 -7.1 
732 1 1 1.0 7.1 7.1 -7.1 
733 1 2 -1.0 4.26 4.26 -4.26 
734 1 1 1.0 4.26 7.1 -4.26 
735 1 1 1.0 7.1 4.26 -4.26 
736 1 2 -1.0 7.1 7.1 -4.26 
737 1 1 1.0 4.26 4.26 -1.42 
738 1 2 -1.0 4.26 7.1 -1.42 
739 1 2 -1.0 7.1 4.26 -1.42 
740 1 1 1.0 7.1 7.1 -1.42 
741 1 2 -1.0 4.26 4.26 1.42 
742 1 1 1.0 4.26 7.1 1.42 
743 1 1 1.0 7.1 4.26 1.42 
744 1 2 -1.0 7.1 7.1 1.42 
745 1 1 1.0 4.26 4.26 4.26 
746 1 2 -1.0 4.26 7.1 4.26 
747 1 2 -1.0 7.1 4.26 4.26 
748 1 1 1.0 7.1 7.1 4.26 
749 1 2 -1.0 4.26 4.26 7.1 
750 1 1 1.0 4.26 7.1 7.1 
751 1 1 1.0 7.1 4.26 7.1 
752 1 2 -1.0 7.1 7.1 7.1 
753 1 1 1.0 4.26 4.26 9.94 
754 1 2 -1.0 4.26 7.1 9.94 
755 1 2 -1.0 7.1 4.26 9.94 
756 1 1 1.0 7.1 7.1 9.94 
757 1 2 -1.0 4.26 4.26 12.78 
758 1 1 1.0 4.26 7.1 12.78 
759 1 1 1.0 7.1 4.26 12.78 
760 1 2 -1.0 7.1 7.1 12.78 
761 1 1 1.0 4.26 9.94 -12.78 
762 1 2 -1.0 4.26 12.78 -12.78 
763 1 2 -1.0 7.1 9.94 -12.78 
764 1 1 1.0 7.1 12.78 -12.78 
765 1 2 -1.0 4.26 9.94 -9.94 
766 1 1 1.0 4.26 12.78 -9.94 
767 1 1 1.0 7.1 9.94 -9.94 
768 1 2 -1.0 7.1 12.78 -9.94 
769 1 1 1.0 4.26 9.94 -7.1 
770 1 2 -1.0 4.26 12.78 -7.1 
771 1 2 -1.0 7.1 9.94 -7.1 
772 1 1 1.0 7.1 12.78 -7.1 
773 1 2 -1.0 4.26 9.94 -4.26 
774 1 1 1.0 4.26 12.78 -4.26 
775 1 1 1.0 7.1 9.94 -4.26 
776 1 2 -1.0 7.1 12.78 -4.26 
777 1 1 1.0 4.26 9.94 -1.42 
778 1 2 -1.0 4.26 12.78 -1.42 
779 1 2 -1.0 7.1 9.94 -1.42 
780 1 1 1.0 7.1 12.78 -1.42 
781 1 2 -1.0 4.26 9.94 1.42 
782 1 1 1.0 4.26 12.78 1.42 
783 1 1 1.0 7.1 9.94 1.42 
784 1 2 -1.0 7.1 12.78 1.42 
785 1 1 1.0 4.26 9.94 4.26 
786 1 2 -1.0 4.26 12.78 4.26 
787 1 2 -1.0 7.1 9.94 4.26 
788 1 1 1.0 7.1 12.78 4.26 
789 1 2 -1.0 4.26 9.94 7.1 
790 1 1 1.0 4.26 12.78 7.1 
791 1 1 1.0 7.1 9.94 7.1 
792 1 2 -1.0 7.1 12.78 7.1 
793 1 1 1.0 4.26 9.94 9.94 
794 1 2 -1.0 4.26 12.78 9.94 
795 1 2 -1.0 7.1 9.94 9.94 
796 1 1 1.0 7.1 12.78 9.94 
797 1 2 -1.0 4.26 9.94 12.78 
798 1 1 1.0 4.26 12.78 12.78 
799 1 1 1.0 7.1 9.94 12.78 
800 1 2 -1.0 7.1 12.78 12.78 
801 1 1 1.0 9.94 -12.78 -12.78 
802 1 2 -1.0 9.94 -9.94 -12.78 
803 1 2 -1.0 12.78 -12.78 -12.78 
804 1 1 1.0 12.78 -9.94 -12.78 
805 1 2 -1.0 9.94 -12.78 -9.94 
806 1 1 1.0 9.94 -9.94 -9.94 
807 1 1 1.0 12.78 -12.78 -9.94 
808 1 2 -1.0 12.78 -9.94 -9.94 
809 1 1 1.0 9.94 -12.78 -7.1 
810 1 2 -1.0 9.94 -9.94 -7.1 
811 1 2 -1.0 12.78 -12.78 -7.1 
812 1 1 1.0 12.78 -9.94 -7.1 
813 1 2 -1.0 9.94 -12.78 -4.26 
814 1 1 1.0 9.94 -9.94 -4.26 
815 1 1 1.0 12.78 -12.78 -4.26 
816 1 2 -1.0 12.78 -9.94 -4.26 
817 1 1 1.0 9.94 -12.78 -1.42 
818 1 2 -1.0 9.94 -9.94 -1.42 
819 1 2 -1.0 12.78 -12.78 -1.42 
820 1 1 1.0 12.78 -9.94 -1.42 
821 1 2 -1.0 9.94 -12.78 1.42 
822 1 1 1.0 9.94 -9.94 1.42 
823 1 1 1.0 12.78 -12.78 1.42 
824 1 2 -1.0 12.78 -9.94 1.42 
825 1 1 1.0 9.94 -12.78 4.26 
826 1 2 -1.0 9.94 -9.94 4.26 
827 1 2 -1.0 12.78 -12.78 4.26 
828 1 1 1.0 12.78 -9.94 4.26 
829 1 2 -1.0 9.94 -12.78 7.1 
830 1 1 1.0 9.94 -9.94 7.1 
831 1 1 1.0 12.78 -12.78 7.1 
832 1 2 -1.0 12.78 -9.94 7.1 
833 1 1 1.0 9.94 -12.78 9.94 
834 1 2 -1.0 9.94 -9.94 9.94 
835 1 2 -1.0 12.78 -12.78 9.94 
836 1 1 1.0 12.78 -9.94 9.94 
837 1 2 -1.0 9.94 -12.78 12.78 
838 1 1 1.0 9.94 -9.94 12.78 
839 1 1 1.0 12.78 -12.78 12.78 
840 1 2 -1.0 12.78 -9.94 12.78 
841 1 1 1.0 9.94 -7.1 -12.78 
842 1 2 -1.0 9.94 -4.26 -12.78 
843 1 2 -1.0 12.78 -7.1 -12.78 
844 1 1 1.0 12.78 -4.26 -12.78 
845 1 2 -1.0 9.94 -7.1 -9.94 
846 1 1 1.0 9.94 -4.26 -9.94 
847 1 1 1.0 12.78 -7.1 -9.94 
848 1 2 -1.0 12.78 -4.26 -9.94 
849 1 1 1.0 9.94 -7.1 -7.1 
850 1 2 -1.0 9.94 -4.26 -7.1 
851 1 2 -1.0 12.78 -7.1 -7.1 
852 1 1 1.0 12.78 -4.26 -7.1 
853 1 2 -1.0 9.94 -7.1 -4.26 
854 1 1 1.0 9.94 -4.26 -4.26 
855 1 1 1.0 12.78 -7.1 -4.26 
856 1 2 -1.0 12.78 -4.26 -4.26 
857 1 1 1.0 9.94 -7.1 -1.42 
858 1 2 -1.0 9.94 -4.26 -1.42 
859 1 2 -1.0 12.78 -7.1 -1.42 
860 1 1 1.0 12.78 -4.26 -1.42 
861 1 2 -1.0 9.94 -7.1 1.42 
862 1 1 1.0 9.94 -4.26 1.42 
863 1 1 1.0 12.78 -7.1 1.42 
864 1 2 -1.0 12.78 -4.26 1.42 
865 1 1 1.0 9.94 -7.1 4.26 
866 1 2 -1.0 9.94 -4.26 4.26 
867 1 2 -1.0 12.78 -7.1 4.26 
868 1 1 1.0 12.78 -4.26 4.26 
869 1 2 -1.0 9.94 -7.1 7.1 
870 1 1 1.0 9.94 -4.26 7.1 
871 1 1 1.0 12.78 -7.1 7.1 
872 1 2 -1.0 12.78 -4.26 7.1 
873 1 1 1.0 9.94 -7.1 9.94 
874 1 2 -1.0 9.94 -4.26 9.94 
875 1 2 -1.0 12.78 -7.1 9.94 
876 1 1 1.0 12.78 -4.26 9.94 
877 1 2 -1.0 9.94 -7.1 12.78 
878 1 1 1.0 9.94 -4.26 12.78 
879 1 1 1.0 12.78 -7.1 12.78 
880 1 2 -1.0 12.78 -4.26 12.78 
881 1 1 1.0 9.94 -1.42 -12.78 
882 1 2 -1.0 9.94 1.42 -12.78 
883 1 2 -1.0 12.78 -1.42 -12.78 
884 1 1 1.0 12.78 1.42 -12.78 
885 1 2 -1.0 9.94 -1.42 -9.94 
886 1 1 1.0 9.94 1.42 -9.94 
887 1 1 1.0 12.78 -1.42 -9.94 
888 1 2 -1.0 12.78 1.42 -9.94 
889 1 1 1.0 9.94 -1.42 -7.1 
890 1 2 -1.0 9.94 1.42 -7.1 
891 1 2 -1.0 12.78 -1.42 -7.1 
892 1 1 1.0 12.78 1.42 -7.1 
893 1 2 -1.0 9.94 -1.42 -4.26 
894 1 1 1.0 9.94 1.42 -4.26 
895 1 1 1.0 12.78 -1.42 -4.26 
896 1 2 -1.0 12.78 1.42 -4.26 
897 1 1 1.0 9.94 -1.42 -1.42 
898 1 2 -1.0 9.94 1.42 -1.42 
899 1 2 -1.0 12.78 -1.42 -1.42 
900 1 1 1.0 12.78 1.42 -1.42 
901 1 2 -1.0 9.94 -1.42 1.42 
902 1 1 1.0 9.94 1.42 1.42 
903 1 1 1.0 12.78 -1.42 1.42 
904 1 2 -1.0 12.78 1.42 1.42 
905 1 1 1.0 9.94 -1.42 4.26 
906 1 2 -1.0 9.94 1.42 4.26 
907 1 2 -1.0 12.78 -1.42 4.26 
908 1 1 1.0 12.78 1.42 4.26 
909 1 2 -1.0 9.94 -1.42 7.1 
910 1 1 1.0 9.94 1.42 7.1 
911 1 1 1.0 12.78 -1.42 7.1 
912 1 2 -1.0 12.78 1.42 7.1 
913 1 1 1.0 9.94 -1.42 9.94 
914 1 2 -1.0 9.94 1.42 9.94 
915 1 2 -1.0 12.78 -1.42 9.94 
916 1 1 1.0 12.78 1.42 9.94 
917 1 2 -1.0 9.94 -1.42 12.78 
918 1 1 1.0 9.94 1.42 12.78 
919 1 1 1.0 12.78 -1.42 12.78 
920 1 2 -1.0 12.78 1.42 12.78 
921 1 1 1.0 9.94 4.26 -12.78 
922 1 2 -1.0 9.94 7.1 -12.78 
923 1 2 -1.0 12.78 4.26 -12.78 
924 1 1 1.0 12.78 7.1 -12.78 
925 1 2 -1.0 9.94 4.26 -9.94 
926 1 1 1.0 9.94 7.1 -9.94 
927 1 1 1.0 12.78 4.26 -9.94 
928 1 2 -1.0 12.78 7.1 -9.94 
929 1 1 1.0 9.94 4.26 -7.1 
930 1 2 -1.0 9.94 7.1 -7.1 
931 1 2 -1.0 12.78 4.26 -7.1 
932 1 1 1.0 12.78 7.1 -7.1 
933 1 2 -1.0 9.94 4.26 -4.26 
934 1 1 1.0 9.94 7.1 -4.26 
935 1 1 1.0 12.78 4.26 -4.26 
936 1 2 -1.0 12.78 7.1 -4.26 
937 1 1 1.0 9.94 4.26 -1.42 
938 1 2 -1.0 9.94 7.1 -1.42 
939 1 2 -1.0 12.78 4.26 -1.42 
940 1 1 1.0 12.78 7.1 -1.42 
941 1 2 -1.0 9.94 4.26 1.42 
942 1 1 1.0 9.94 7.1 1.42 
943 1 1 1.0 12.78 4.26 1.42 
944 1 2 -1.0 12.78 7.1 1.42 
945 1 1 1.0 9.94 4.26 4.26 
946 1 2 -1.0 9.94 7.1 4.26 
947 1 2 -1.0 12.78 4.26 4.26 
948 1 1 1.0 12.78 7.1 4.26 
949 1 2 -1.0 9.94 4.26 7.1 
950 1 1 1.0 9.94 7.1 7.1 
951 1 1 1.0 12.78 4.26 7.1 
952 1 2 -1.0 12.78 7.1 7.1 
953 1 1 1.0 9.94 4.26 9.94 
954 1 2 -1.0 9.94 7.1 9.94 
955 1 2 -1.0 12.78 4.26 9.94 
956 1 1 1.0 12.78 7.1 9.94 
957 1 2 -1.0 9.94 4.26 12.78 
958 1 1 1.0 9.94 7.1 12.78 
959 1 1 1.0 12.78 4.26 12.78 
960 1 2 -1.0 12.78 7.1 12.78 
961 1 1 1.0 9.94 9.94 -12.78 
962 1 2 -1.0 9.94 12.78 -12.78 
963 1 2 -1.0 12.78 9.94 -12.78 
964 1 1 1.0 12.78 12.78 -12.78 
965 1 2 -1.0 9.94 9.94 -9.94 
966 1 1 1.0 9.94 12.78 -9.94 
967 1 1 1.0 12.78 9.94 -9.94 
968 1 2 -1.0 12.78 12.78 -9.94 
969 1 1 1.0 9.94 9.94 -7.1 
970 1 2 -1.0 9.94 12.78 -7.1 
971 1 2 -1.0 12.78 9.94 -7.1 
972 1 1 1.0 12.78 12.78 -7.1 
973 1 2 -1.0 9.94 9.94 -4.26 
974 1 1 1.0 9.94 12.78 -4.26 
975 1 1 1.0 12.78 9.94 -4.26 
976 1 2 -1.0 12.78 12.78 -4.26 
977 1 1 1.0 9.94 9.94 -1.42 
978 1 2 -1.0 9.94 12.78 -1.42 
979 1 2 -1.0 12.78 9.94 -1.42 
980 1 1 1.0 12.78 12.78 -1.42 
981 1 2 -1.0 9.94 9.94 1.42 
982 1 1 1.0 9.94 12.78 1.42 
983 1 1 1.0 12.78 9.94 1.42 
984 1 2 -1.0 12.78 12.78 1.42 
985 1 1 1.0 9.94 9.94 4.26 
986 1 2 -1.0 9.94 12.78 4.26 
987 1 2 -1.0 12.78 9.94 4.26 
988 1 1 1.0 12.78 12.78 4.26 
989 1 2 -1.0 9.94 9.94 7.1 
990 1 1 1.0 9.94 12.78 7.1 
991 1 1 1.0 12.78 9.94 7.1 
992 1 2 -1.0 12.78 12.78 7.1 
993 1 1 1.0 9.94 9.94 9.94 
994 1 2 -1.0 9.94 12.78 9.94 
995 1 2 -1.0 12.78 9.94 9.94 
996 1 1 1.0 12.78 12.78 9.94 
997 1 2 -1.0 9.94 9.94 12.78 
998 1 1 1.0 9.94 12.78 12.78 
999 1 1 1.0 12.78 9.94 12.78 