# System

1634 atoms
2 atom types

-22.3297      22.3297 xlo xhi
-16.3087      16.3087 ylo yhi
-16.0682      16.0682 zlo zhi

Atoms

1	1	-10.0093	-9.8509	-10.0606	
2	1	10.0807	-9.8509	-10.0606	
3	1	0.035685	-9.8509	-8.7934	
4	1	-10.0093	2.7791	-10.0606	
5	1	-10.0093	9.8871	-10.0606	
6	1	0.082294	-7.0899	-3.4896	
7	1	10.0807	2.7791	-10.0606	
8	1	0.082294	0.018115	-3.4896	
9	1	10.0807	9.8871	-10.0606	
10	1	0.035685	9.8871	-8.7934	
11	1	-9.9627	0.018115	-2.2224	
12	1	0.035685	2.7791	-8.7934	
13	1	-9.9627	-7.0899	-2.2224	
14	1	10.1273	0.018115	-2.2224	
15	1	10.1273	-7.0899	-2.2224	
16	1	0.082294	12.6481	-3.4896	
17	1	-9.9627	12.6481	-2.2224	
18	1	10.1273	12.6481	-2.2224	
19	1	-10.0093	-9.8509	3.0814	
20	1	10.0807	-9.8509	3.0814	
21	1	0.035685	-9.8509	4.3486	
22	1	-10.0093	2.7791	3.0814	
23	1	-10.0093	9.8871	3.0814	
24	1	0.082304	-7.0899	9.6524	
25	1	10.0807	2.7791	3.0814	
26	1	0.082304	0.018115	9.6524	
27	1	10.0807	9.8871	3.0814	
28	1	0.035685	9.8871	4.3486	
29	1	-9.9627	0.018115	10.9196	
30	1	0.035685	2.7791	4.3486	
31	1	-9.9627	-7.0899	10.9196	
32	1	10.1273	0.018115	10.9196	
33	1	10.1273	-7.0899	10.9196	
34	1	0.082304	12.6481	9.6524	
35	1	-9.9627	12.6481	10.9196	
36	1	10.1273	12.6481	10.9196	
37	1	-17.7711	-9.9362	-10.0953	
38	1	-7.7261	-9.9362	-8.7587	
39	1	2.3189	-9.9362	-10.0953	
40	1	12.3639	-9.9362	-8.7587	
41	1	-17.7711	9.8018	-10.0953	
42	1	-12.2459	-0.067155	-3.5243	
43	1	-17.7711	2.8643	-10.0953	
44	1	-12.2459	-7.0047	-3.5243	
45	1	-2.2009	-7.0047	-2.1877	
46	1	-7.7261	2.8643	-8.7587	
47	1	-2.2009	-0.067155	-2.1877	
48	1	-7.7261	9.8018	-8.7587	
49	1	2.3189	9.8018	-10.0953	
50	1	7.8441	-0.067155	-3.5243	
51	1	2.3189	2.8643	-10.0953	
52	1	7.8441	-7.0047	-3.5243	
53	1	17.8891	-7.0047	-2.1877	
54	1	12.3639	2.8643	-8.7587	
55	1	17.8891	-0.067155	-2.1877	
56	1	12.3639	9.8018	-8.7587	
57	1	-12.2459	12.7333	-3.5243	
58	1	-2.2009	12.7333	-2.1877	
59	1	7.8441	12.7333	-3.5243	
60	1	17.8891	12.7333	-2.1877	
61	1	-17.7711	-9.9362	3.0467	
62	1	-7.7261	-9.9362	4.3833	
63	1	2.3189	-9.9362	3.0467	
64	1	12.3639	-9.9362	4.3833	
65	1	-17.7711	9.8018	3.0467	
66	1	-12.2459	-0.067155	9.6177	
67	1	-17.7711	2.8643	3.0467	
68	1	-12.2459	-7.0047	9.6177	
69	1	-2.2009	-7.0047	10.9543	
70	1	-7.7261	2.8643	4.3833	
71	1	-2.2009	-0.067155	10.9543	
72	1	-7.7261	9.8018	4.3833	
73	1	2.3189	9.8018	3.0467	
74	1	7.8441	-0.067155	9.6177	
75	1	2.3189	2.8643	3.0467	
76	1	7.8441	-7.0047	9.6177	
77	1	17.8891	-7.0047	10.9543	
78	1	12.3639	2.8643	4.3833	
79	1	17.8891	-0.067155	10.9543	
80	1	12.3639	9.8018	4.3833	
81	1	-12.2459	12.7333	9.6177	
82	1	-2.2009	12.7333	10.9543	
83	1	7.8441	12.7333	9.6177	
84	1	17.8891	12.7333	10.9543	
85	1	-18.013	-11.1666	-7.786	
86	1	-7.968	-11.1666	-11.068	
87	1	2.077	-11.1666	-7.786	
88	1	12.122	-11.1666	-11.068	
89	1	-18.013	8.5714	-7.786	
90	1	-12.004	-1.2976	-1.215	
91	1	-18.013	4.0948	-7.786	
92	1	-12.004	-5.7742	-1.215	
93	1	-1.959	-5.7742	-4.497	
94	1	-7.968	4.0948	-11.068	
95	1	-1.959	-1.2976	-4.497	
96	1	-7.968	8.5714	-11.068	
97	1	2.077	8.5714	-7.786	
98	1	8.086	-1.2976	-1.215	
99	1	2.077	4.0948	-7.786	
100	1	8.086	-5.7742	-1.215	
101	1	18.1309	-5.7742	-4.497	
102	1	12.122	4.0948	-11.068	
103	1	18.1309	-1.2976	-4.497	
104	1	12.122	8.5714	-11.068	
105	1	-18.013	-11.1666	5.356	
106	1	-7.968	-11.1666	2.074	
107	1	2.077	-11.1666	5.356	
108	1	12.122	-11.1666	2.074	
109	1	-18.013	8.5714	5.356	
110	1	-12.004	-1.2976	11.9271	
111	1	-18.013	4.0948	5.356	
112	1	-12.004	-5.7742	11.9271	
113	1	-1.959	-5.7742	8.645	
114	1	-7.968	4.0948	2.074	
115	1	-1.959	-1.2976	8.645	
116	1	-7.968	8.5714	2.074	
117	1	2.077	8.5714	5.356	
118	1	8.086	-1.2976	11.927	
119	1	2.077	4.0948	5.356	
120	1	8.086	-5.7742	11.927	
121	1	18.131	-5.7742	8.645	
122	1	12.122	4.0948	2.074	
123	1	18.131	-1.2976	8.645	
124	1	12.122	8.5714	2.074	
125	1	-17.9649	-8.5365	-7.884	
126	1	-7.9199	-8.5365	-10.97	
127	1	2.125	-8.5365	-7.884	
128	1	12.17	-8.5365	-10.97	
129	1	-17.9649	11.2015	-7.884	
130	1	-12.0521	1.3325	-1.313	
131	1	-17.9649	1.4647	-7.884	
132	1	-12.0521	-8.4043	-1.313	
133	1	-2.0071	-8.4043	-4.399	
134	1	-7.9199	1.4647	-10.97	
135	1	-2.0071	1.3325	-4.399	
136	1	-7.9199	11.2015	-10.97	
137	1	2.125	11.2015	-7.884	
138	1	8.0379	1.3325	-1.313	
139	1	2.125	1.4647	-7.884	
140	1	8.0379	-8.4043	-1.313	
141	1	18.0829	-8.4043	-4.399	
142	1	12.17	1.4647	-10.97	
143	1	18.0829	1.3325	-4.399	
144	1	12.17	11.2015	-10.97	
145	1	-12.0521	11.3337	-1.313	
146	1	-2.0071	11.3337	-4.399	
147	1	8.0379	11.3337	-1.313	
148	1	18.0829	11.3337	-4.399	
149	1	-17.9649	-8.5365	5.258	
150	1	-7.9199	-8.5365	2.172	
151	1	2.1251	-8.5365	5.258	
152	1	12.1701	-8.5365	2.172	
153	1	-17.9649	11.2015	5.258	
154	1	-12.0521	1.3325	11.829	
155	1	-17.9649	1.4647	5.258	
156	1	-12.0521	-8.4043	11.829	
157	1	-2.0071	-8.4043	8.743	
158	1	-7.9199	1.4647	2.172	
159	1	-2.0071	1.3325	8.743	
160	1	-7.9199	11.2015	2.172	
161	1	2.1251	11.2015	5.258	
162	1	8.0379	1.3325	11.829	
163	1	2.1251	1.4647	5.258	
164	1	8.0379	-8.4043	11.829	
165	1	18.0829	-8.4043	8.743	
166	1	12.1701	1.4647	2.172	
167	1	18.0829	1.3325	8.743	
168	1	12.1701	11.2015	2.172	
169	1	-12.0521	11.3337	11.829	
170	1	-2.0071	11.3337	8.743	
171	1	8.0379	11.3337	11.829	
172	1	18.0829	11.3337	8.743	
173	1	-3.3762	-7.7101	-13.0776	
174	1	-3.3762	0.63827	-13.0776	
175	1	16.7138	-7.7101	-13.0776	
176	1	16.7138	0.63827	-13.0776	
177	1	-3.3762	12.0279	-13.0776	
178	1	16.7138	12.0279	-13.0776	
179	1	-16.5958	-9.2307	-12.3474	
180	1	-6.5508	-9.2307	-6.5066	
181	1	3.4942	-9.2307	-12.3474	
182	1	13.5392	-9.2307	-6.5066	
183	1	-16.5958	10.5073	-12.3474	
184	1	-13.4212	0.63827	-5.7764	
185	1	-16.5958	2.1589	-12.3474	
186	1	-13.4212	-7.7101	-5.7764	
187	1	-3.3762	-7.7101	0.064417	
188	1	-6.5508	2.1589	-6.5066	
189	1	-3.3762	0.63827	0.064417	
190	1	-6.5508	10.5073	-6.5066	
191	1	3.4942	10.5073	-12.3474	
192	1	6.6688	0.63827	-5.7764	
193	1	3.4942	2.1589	-12.3474	
194	1	6.6688	-7.7101	-5.7764	
195	1	16.7138	-7.7101	0.064417	
196	1	13.5392	2.1589	-6.5066	
197	1	16.7138	0.63827	0.064417	
198	1	13.5392	10.5073	-6.5066	
199	1	-13.4212	12.0279	-5.7764	
200	1	-3.3762	12.0279	0.064417	
201	1	6.6688	12.0279	-5.7764	
202	1	16.7138	12.0279	0.064417	
203	1	-16.5958	-9.2307	0.7946	
204	1	-6.5508	-9.2307	6.6354	
205	1	3.4942	-9.2307	0.79459	
206	1	13.5392	-9.2307	6.6354	
207	1	-16.5958	10.5073	0.7946	
208	1	-13.4212	0.63827	7.3656	
209	1	-16.5958	2.1589	0.7946	
210	1	-13.4212	-7.7101	7.3656	
211	1	-3.3762	-7.7101	13.2064	
212	1	-6.5508	2.1589	6.6354	
213	1	-3.3762	0.63827	13.2064	
214	1	-6.5508	10.5073	6.6354	
215	1	3.4942	10.5073	0.79459	
216	1	6.6688	0.63827	7.3656	
217	1	3.4942	2.1589	0.79459	
218	1	6.6688	-7.7101	7.3656	
219	1	16.7138	-7.7101	13.2064	
220	1	13.5392	2.1589	6.6354	
221	1	16.7138	0.63827	13.2064	
222	1	13.5392	10.5073	6.6354	
223	1	-13.4212	12.0279	7.3656	
224	1	-3.3762	12.0279	13.2064	
225	1	6.6688	12.0279	7.3656	
226	1	16.7138	12.0279	13.2064	
227	1	-13.4077	-9.349	-3.7161	
228	1	-3.3627	-9.349	-1.9959	
229	1	6.6823	-9.349	-3.7161	
230	1	16.7273	-9.349	-1.9959	
231	1	-16.6093	-7.5919	-10.2871	
232	1	-13.4077	2.2771	-3.7161	
233	1	-16.6093	0.52004	-10.2871	
234	1	-13.4077	10.389	-3.7161	
235	1	-3.3627	10.389	-1.9959	
236	1	-6.5643	0.52004	-8.5669	
237	1	-3.3627	2.2771	-1.9959	
238	1	-6.5643	-7.5919	-8.5669	
239	1	3.4807	-7.5919	-10.2871	
240	1	6.6823	2.2771	-3.7161	
241	1	3.4807	0.52004	-10.2871	
242	1	6.6823	10.389	-3.7161	
243	1	16.7273	10.389	-1.9959	
244	1	13.5257	0.52004	-8.5669	
245	1	16.7273	2.2771	-1.9959	
246	1	13.5257	-7.5919	-8.5669	
247	1	-16.6093	12.1461	-10.2871	
248	1	-6.5643	12.1461	-8.5669	
249	1	3.4807	12.1461	-10.2871	
250	1	13.5257	12.1461	-8.5669	
251	1	-13.4077	-9.349	9.4259	
252	1	-3.3627	-9.349	11.1461	
253	1	6.6823	-9.349	9.4259	
254	1	16.7273	-9.349	11.1461	
255	1	-16.6093	-7.5919	2.8549	
256	1	-13.4077	2.2771	9.4259	
257	1	-16.6093	0.52004	2.8549	
258	1	-13.4077	10.389	9.4259	
259	1	-3.3627	10.389	11.1461	
260	1	-6.5643	0.52004	4.5751	
261	1	-3.3627	2.2771	11.1461	
262	1	-6.5643	-7.5919	4.5751	
263	1	3.4807	-7.5919	2.8549	
264	1	6.6823	2.2771	9.4259	
265	1	3.4807	0.52004	2.8549	
266	1	6.6823	10.389	9.4259	
267	1	16.7273	10.389	11.1461	
268	1	13.5257	0.52004	4.5751	
269	1	16.7273	2.2771	11.1461	
270	1	13.5257	-7.5919	4.5751	
271	1	-16.6093	12.1461	2.8549	
272	1	-6.5643	12.1461	4.5751	
273	1	3.4807	12.1461	2.8549	
274	1	13.5257	12.1461	4.5751	
275	1	-15.1509	-9.7788	-10.2238	
276	1	-5.1059	-9.7788	-8.6302	
277	1	4.9391	-9.7788	-10.2238	
278	1	14.984	-9.7788	-8.6302	
279	1	-15.1509	9.9592	-10.2238	
280	1	-14.8661	0.090156	-3.6528	
281	1	-15.1509	2.707	-10.2238	
282	1	-14.8661	-7.162	-3.6528	
283	1	-4.8211	-7.162	-2.0592	
284	1	-5.1059	2.707	-8.6302	
285	1	-4.8211	0.090156	-2.0592	
286	1	-5.1059	9.9592	-8.6302	
287	1	4.9391	9.9592	-10.2238	
288	1	5.2239	0.090156	-3.6528	
289	1	4.9391	2.707	-10.2238	
290	1	5.2239	-7.162	-3.6528	
291	1	15.2689	-7.162	-2.0592	
292	1	14.984	2.707	-8.6302	
293	1	15.2689	0.090156	-2.0592	
294	1	14.984	9.9592	-8.6302	
295	1	-14.8661	12.576	-3.6528	
296	1	-4.8211	12.576	-2.0592	
297	1	5.2239	12.576	-3.6528	
298	1	15.2689	12.576	-2.0592	
299	1	-15.1509	-9.7788	2.9182	
300	1	-5.1059	-9.7788	4.5118	
301	1	4.9391	-9.7788	2.9182	
302	1	14.9841	-9.7788	4.5118	
303	1	-15.1509	9.9592	2.9182	
304	1	-14.8661	0.090156	9.4892	
305	1	-15.1509	2.707	2.9182	
306	1	-14.8661	-7.162	9.4892	
307	1	-4.8211	-7.162	11.0828	
308	1	-5.1059	2.707	4.5118	
309	1	-4.8211	0.090156	11.0828	
310	1	-5.1059	9.9592	4.5118	
311	1	4.9391	9.9592	2.9182	
312	1	5.2239	0.090156	9.4892	
313	1	4.9391	2.707	2.9182	
314	1	5.2239	-7.162	9.4892	
315	1	15.2689	-7.162	11.0828	
316	1	14.9841	2.707	4.5118	
317	1	15.2689	0.090156	11.0828	
318	1	14.9841	9.9592	4.5118	
319	1	-14.8661	12.576	9.4892	
320	1	-4.8211	12.576	11.0828	
321	1	5.2239	12.576	9.4892	
322	1	15.2689	12.576	11.0828	
323	1	-15.8332	-11.0294	-0.96328	
324	1	-5.7882	-11.0294	-4.7487	
325	1	4.2568	-11.0294	-0.96328	
326	1	14.3018	-11.0294	-4.7487	
327	1	-15.8332	8.7086	-0.96328	
328	1	-14.1838	-1.1604	-7.5343	
329	1	-15.8332	3.9576	-0.96328	
330	1	-14.1838	-5.9114	-7.5343	
331	1	-4.1388	-5.9114	-11.3197	
332	1	-5.7882	3.9576	-4.7487	
333	1	-4.1388	-1.1604	-11.3197	
334	1	-5.7882	8.7086	-4.7487	
335	1	4.2568	8.7086	-0.96328	
336	1	5.9062	-1.1604	-7.5343	
337	1	4.2568	3.9576	-0.96328	
338	1	5.9062	-5.9114	-7.5343	
339	1	15.9512	-5.9114	-11.3197	
340	1	14.3018	3.9576	-4.7487	
341	1	15.9512	-1.1604	-11.3197	
342	1	14.3018	8.7086	-4.7487	
343	1	-15.8332	-11.0294	12.1787	
344	1	-5.7882	-11.0294	8.3933	
345	1	4.2568	-11.0294	12.1787	
346	1	14.3018	-11.0294	8.3933	
347	1	-15.8332	8.7086	12.1787	
348	1	-14.1838	-1.1604	5.6077	
349	1	-15.8332	3.9576	12.1787	
350	1	-14.1838	-5.9114	5.6077	
351	1	-4.1388	-5.9114	1.8223	
352	1	-5.7882	3.9576	8.3933	
353	1	-4.1388	-1.1604	1.8223	
354	1	-5.7882	8.7086	8.3933	
355	1	4.2568	8.7086	12.1787	
356	1	5.9062	-1.1604	5.6077	
357	1	4.2568	3.9576	12.1787	
358	1	5.9062	-5.9114	5.6077	
359	1	15.9512	-5.9114	1.8223	
360	1	14.3018	3.9576	8.3933	
361	1	15.9512	-1.1604	1.8223	
362	1	14.3018	8.7086	8.3933	
363	1	-14.0721	-9.3677	-13.0742	
364	1	6.0179	-9.3677	-13.0742	
365	1	-14.0721	10.3703	-13.0742	
366	1	-14.0721	2.2959	-13.0742	
367	1	6.0179	10.3703	-13.0742	
368	1	6.0179	2.2959	-13.0742	
369	1	-14.0721	-9.3677	0.067839	
370	1	-4.0271	-9.3677	-5.7798	
371	1	6.0179	-9.3677	0.067839	
372	1	16.0629	-9.3677	-5.7798	
373	1	-14.0721	10.3703	0.067839	
374	1	-15.9449	0.50129	-6.5032	
375	1	-14.0721	2.2959	0.067839	
376	1	-15.9449	-7.5731	-6.5032	
377	1	-5.8999	-7.5731	-12.3508	
378	1	-4.0271	2.2959	-5.7798	
379	1	-5.8999	0.50129	-12.3508	
380	1	-4.0271	10.3703	-5.7798	
381	1	6.0179	10.3703	0.067839	
382	1	4.1451	0.50129	-6.5032	
383	1	6.0179	2.2959	0.067839	
384	1	4.1451	-7.5731	-6.5032	
385	1	14.1901	-7.5731	-12.3508	
386	1	16.0629	2.2959	-5.7798	
387	1	14.1901	0.50129	-12.3508	
388	1	16.0629	10.3703	-5.7798	
389	1	-15.9449	12.1649	-6.5032	
390	1	-5.8999	12.1649	-12.3508	
391	1	4.1451	12.1649	-6.5032	
392	1	14.1901	12.1649	-12.3508	
393	1	-14.0721	-9.3677	13.2098	
394	1	-4.0271	-9.3677	7.3622	
395	1	6.0179	-9.3677	13.2098	
396	1	16.0629	-9.3677	7.3622	
397	1	-14.0721	10.3703	13.2098	
398	1	-15.9449	0.50129	6.6388	
399	1	-14.0721	2.2959	13.2098	
400	1	-15.9449	-7.5731	6.6388	
401	1	-5.8999	-7.5731	0.79118	
402	1	-4.0271	2.2959	7.3622	
403	1	-5.8999	0.50129	0.79118	
404	1	-4.0271	10.3703	7.3622	
405	1	6.0179	10.3703	13.2098	
406	1	4.1451	0.50129	6.6388	
407	1	6.0179	2.2959	13.2098	
408	1	4.1451	-7.5731	6.6388	
409	1	14.1901	-7.5731	0.79118	
410	1	16.0629	2.2959	7.3622	
411	1	14.1901	0.50129	0.79118	
412	1	16.0629	10.3703	7.3622	
413	1	-15.9449	12.1649	6.6388	
414	1	-5.8999	12.1649	0.79118	
415	1	4.1451	12.1649	6.6388	
416	1	14.1901	12.1649	0.79118	
417	1	-15.8836	-8.4903	-1.6259	
418	1	-5.8386	-8.4903	-4.0861	
419	1	4.2064	-8.4903	-1.6259	
420	1	14.2514	-8.4903	-4.0861	
421	1	-15.8836	11.2477	-1.6259	
422	1	-14.1334	1.3787	-8.1969	
423	1	-15.8836	1.4185	-1.6259	
424	1	-14.1334	-8.4505	-8.1969	
425	1	-4.0884	-8.4505	-10.6571	
426	1	-5.8386	1.4185	-4.0861	
427	1	-4.0884	1.3787	-10.6571	
428	1	-5.8386	11.2477	-4.0861	
429	1	4.2064	11.2477	-1.6259	
430	1	5.9566	1.3787	-8.1969	
431	1	4.2064	1.4185	-1.6259	
432	1	5.9566	-8.4505	-8.1969	
433	1	16.0016	-8.4505	-10.6571	
434	1	14.2514	1.4185	-4.0861	
435	1	16.0016	1.3787	-10.6571	
436	1	14.2514	11.2477	-4.0861	
437	1	-14.1334	11.2875	-8.1969	
438	1	-4.0884	11.2875	-10.6571	
439	1	5.9566	11.2875	-8.1969	
440	1	16.0016	11.2875	-10.6571	
441	1	-15.8836	-8.4903	11.5161	
442	1	-5.8386	-8.4903	9.0559	
443	1	4.2064	-8.4903	11.5161	
444	1	14.2514	-8.4903	9.0559	
445	1	-15.8836	11.2477	11.5161	
446	1	-14.1334	1.3787	4.9451	
447	1	-15.8836	1.4185	11.5161	
448	1	-14.1334	-8.4505	4.9451	
449	1	-4.0884	-8.4505	2.4849	
450	1	-5.8386	1.4185	9.0559	
451	1	-4.0884	1.3787	2.4849	
452	1	-5.8386	11.2477	9.0559	
453	1	4.2064	11.2477	11.5161	
454	1	5.9566	1.3787	4.9451	
455	1	4.2064	1.4185	11.5161	
456	1	5.9566	-8.4505	4.9451	
457	1	16.0016	-8.4505	2.4849	
458	1	14.2514	1.4185	9.0559	
459	1	16.0016	1.3787	2.4849	
460	1	14.2514	11.2477	9.0559	
461	1	-14.1334	11.2875	4.9451	
462	1	-4.0884	11.2875	2.4849	
463	1	5.9566	11.2875	4.9451	
464	1	16.0016	11.2875	2.4849	
465	1	-12.1451	-10.9663	-13.8736	
466	1	7.9449	-10.9663	-13.8736	
467	1	-12.1451	8.7717	-13.8736	
468	1	-12.1451	3.8945	-13.8736	
469	1	7.9449	8.7717	-13.8736	
470	1	7.9449	3.8945	-13.8736	
471	1	-12.1451	-10.9663	-0.73159	
472	1	-2.1001	-10.9663	-4.9804	
473	1	7.9449	-10.9663	-0.73159	
474	1	17.9899	-10.9663	-4.9804	
475	1	-12.1451	8.7717	-0.73159	
476	1	-17.8719	-1.0973	-7.3026	
477	1	-12.1451	3.8945	-0.73159	
478	1	-17.8719	-5.9745	-7.3026	
479	1	-7.8269	-5.9745	-11.5514	
480	1	-2.1001	3.8945	-4.9804	
481	1	-7.8269	-1.0973	-11.5514	
482	1	-2.1001	8.7717	-4.9804	
483	1	7.9449	8.7717	-0.73159	
484	1	2.2181	-1.0973	-7.3026	
485	1	7.9449	3.8945	-0.73159	
486	1	2.2181	-5.9745	-7.3026	
487	1	12.2631	-5.9745	-11.5514	
488	1	17.9899	3.8945	-4.9804	
489	1	12.2631	-1.0973	-11.5514	
490	1	17.9899	8.7717	-4.9804	
491	1	-12.1451	-10.9663	12.4104	
492	1	-2.1001	-10.9663	8.1616	
493	1	7.9449	-10.9663	12.4104	
494	1	17.9899	-10.9663	8.1616	
495	1	-12.1451	8.7717	12.4104	
496	1	-17.8719	-1.0973	5.8394	
497	1	-12.1451	3.8945	12.4104	
498	1	-17.8719	-5.9745	5.8394	
499	1	-7.8269	-5.9745	1.5906	
500	1	-2.1001	3.8945	8.1616	
501	1	-7.8269	-1.0973	1.5906	
502	1	-2.1001	8.7717	8.1616	
503	1	7.9449	8.7717	12.4104	
504	1	2.2181	-1.0973	5.8394	
505	1	7.9449	3.8945	12.4104	
506	1	2.2181	-5.9745	5.8394	
507	1	12.2631	-5.9745	1.5906	
508	1	17.9899	3.8945	8.1616	
509	1	12.2631	-1.0973	1.5906	
510	1	17.9899	8.7717	8.1616	
511	1	-8.2866	-7.7393	-13.445	
512	1	-8.2866	0.66749	-13.445	
513	1	11.8034	-7.7393	-13.445	
514	1	11.8034	0.66749	-13.445	
515	1	-8.2866	11.9987	-13.445	
516	1	11.8034	11.9987	-13.445	
517	1	-11.6854	-9.2015	-11.98	
518	1	-1.6404	-9.2015	-6.874	
519	1	8.4046	-9.2015	-11.98	
520	1	18.4496	-9.2015	-6.874	
521	1	-11.6854	10.5365	-11.98	
522	1	-18.3316	0.66749	-5.409	
523	1	-11.6854	2.1297	-11.98	
524	1	-18.3316	-7.7393	-5.409	
525	1	-8.2866	-7.7393	-0.30302	
526	1	-1.6404	2.1297	-6.874	
527	1	-8.2866	0.66749	-0.30302	
528	1	-1.6404	10.5365	-6.874	
529	1	8.4046	10.5365	-11.98	
530	1	1.7584	0.66749	-5.409	
531	1	8.4046	2.1297	-11.98	
532	1	1.7584	-7.7393	-5.409	
533	1	11.8034	-7.7393	-0.30303	
534	1	18.4496	2.1297	-6.874	
535	1	11.8034	0.66749	-0.30303	
536	1	18.4496	10.5365	-6.874	
537	1	-18.3316	11.9987	-5.409	
538	1	-8.2866	11.9987	-0.30302	
539	1	1.7584	11.9987	-5.409	
540	1	11.8034	11.9987	-0.30303	
541	1	-11.6854	-9.2015	1.162	
542	1	-1.6404	-9.2015	6.268	
543	1	8.4046	-9.2015	1.162	
544	1	18.4496	-9.2015	6.268	
545	1	-11.6854	10.5365	1.162	
546	1	-18.3316	0.66749	7.733	
547	1	-11.6854	2.1297	1.162	
548	1	-18.3316	-7.7393	7.733	
549	1	-8.2866	-7.7393	12.839	
550	1	-1.6404	2.1297	6.268	
551	1	-8.2866	0.66749	12.839	
552	1	-1.6404	10.5365	6.268	
553	1	8.4046	10.5365	1.162	
554	1	1.7584	0.66749	7.733	
555	1	8.4046	2.1297	1.162	
556	1	1.7584	-7.7393	7.733	
557	1	11.8034	-7.7393	12.839	
558	1	18.4496	2.1297	6.268	
559	1	11.8034	0.66749	12.839	
560	1	18.4496	10.5365	6.268	
561	1	-18.3316	11.9987	7.733	
562	1	-8.2866	11.9987	12.839	
563	1	1.7584	11.9987	7.733	
564	1	11.8034	11.9987	12.839	
565	1	-12.5989	-10.0116	-9.6505	
566	1	-2.5539	-10.0116	-9.2035	
567	1	7.4911	-10.0116	-9.6505	
568	1	17.5361	-10.0116	-9.2035	
569	1	-12.5989	9.7264	-9.6505	
570	1	-17.4181	-0.14255	-3.0795	
571	1	-12.5989	2.9397	-9.6505	
572	1	-17.4181	-6.9293	-3.0795	
573	1	-7.3731	-6.9293	-2.6324	
574	1	-2.5539	2.9397	-9.2035	
575	1	-7.3731	-0.14255	-2.6324	
576	1	-2.5539	9.7264	-9.2035	
577	1	7.4911	9.7264	-9.6505	
578	1	2.6719	-0.14255	-3.0795	
579	1	7.4911	2.9397	-9.6505	
580	1	2.6719	-6.9293	-3.0795	
581	1	12.7169	-6.9293	-2.6325	
582	1	17.5361	2.9397	-9.2035	
583	1	12.7169	-0.14255	-2.6325	
584	1	17.5361	9.7264	-9.2035	
585	1	-17.4181	12.8087	-3.0795	
586	1	-7.3731	12.8087	-2.6324	
587	1	2.6719	12.8087	-3.0795	
588	1	12.7169	12.8087	-2.6325	
589	1	-12.5989	-10.0116	3.4915	
590	1	-2.5539	-10.0116	3.9386	
591	1	7.4911	-10.0116	3.4915	
592	1	17.5361	-10.0116	3.9385	
593	1	-12.5989	9.7264	3.4915	
594	1	-17.4181	-0.14255	10.0625	
595	1	-12.5989	2.9397	3.4915	
596	1	-17.4181	-6.9293	10.0625	
597	1	-7.3731	-6.9293	10.5095	
598	1	-2.5539	2.9397	3.9386	
599	1	-7.3731	-0.14255	10.5095	
600	1	-2.5539	9.7264	3.9386	
601	1	7.4911	9.7264	3.4915	
602	1	2.6719	-0.14255	10.0625	
603	1	7.4911	2.9397	3.4915	
604	1	2.6719	-6.9293	10.0625	
605	1	12.7169	-6.9293	10.5095	
606	1	17.5361	2.9397	3.9385	
607	1	12.7169	-0.14255	10.5095	
608	1	17.5361	9.7264	3.9385	
609	1	-17.4181	12.8087	10.0625	
610	1	-7.3731	12.8087	10.5095	
611	1	2.6719	12.8087	10.0625	
612	1	12.7169	12.8087	10.5095	
613	1	-18.5693	-9.282	-3.292	
614	1	-8.5243	-9.282	-2.4199	
615	1	1.5207	-9.282	-3.292	
616	1	11.5657	-9.282	-2.4199	
617	1	-11.4478	-7.6588	-9.863	
618	1	-18.5693	2.2102	-3.292	
619	1	-11.4478	0.58695	-9.863	
620	1	-18.5693	10.456	-3.292	
621	1	-8.5243	10.456	-2.4199	
622	1	-1.4028	0.58695	-8.9909	
623	1	-8.5243	2.2102	-2.4199	
624	1	-1.4028	-7.6588	-8.9909	
625	1	8.6422	-7.6588	-9.863	
626	1	1.5207	2.2102	-3.292	
627	1	8.6422	0.58695	-9.863	
628	1	1.5207	10.456	-3.292	
629	1	11.5657	10.456	-2.4199	
630	1	18.6872	0.58695	-8.9909	
631	1	11.5657	2.2102	-2.4199	
632	1	18.6872	-7.6588	-8.9909	
633	1	-11.4478	12.0792	-9.863	
634	1	-1.4028	12.0792	-8.9909	
635	1	8.6422	12.0792	-9.863	
636	1	18.6872	12.0792	-8.9909	
637	1	-18.5693	-9.282	9.85	
638	1	-8.5243	-9.282	10.7221	
639	1	1.5207	-9.282	9.85	
640	1	11.5657	-9.282	10.7221	
641	1	-11.4478	-7.6588	3.279	
642	1	-18.5693	2.2102	9.85	
643	1	-11.4478	0.58695	3.279	
644	1	-18.5693	10.456	9.85	
645	1	-8.5243	10.456	10.7221	
646	1	-1.4028	0.58695	4.1511	
647	1	-8.5243	2.2102	10.7221	
648	1	-1.4028	-7.6588	4.1511	
649	1	8.6422	-7.6588	3.279	
650	1	1.5207	2.2102	9.85	
651	1	8.6422	0.58695	3.279	
652	1	1.5207	10.456	9.85	
653	1	11.5657	10.456	10.7221	
654	1	18.6872	0.58695	4.1511	
655	1	11.5657	2.2102	10.7221	
656	1	18.6872	-7.6588	4.1511	
657	1	-11.4478	12.0792	3.279	
658	1	-1.4028	12.0792	4.1511	
659	1	8.6422	12.0792	3.279	
660	1	18.6872	12.0792	4.1511	
661	1	-14.4082	-11.0626	-8.0554	
662	1	-4.3632	-11.0626	-10.7986	
663	1	5.6818	-11.0626	-8.0554	
664	1	15.7268	-11.0626	-10.7986	
665	1	-14.4082	8.6754	-8.0554	
666	1	-15.6088	-1.1936	-1.4844	
667	1	-14.4082	3.9908	-8.0554	
668	1	-15.6088	-5.8782	-1.4844	
669	1	-5.5638	-5.8782	-4.2276	
670	1	-4.3632	3.9908	-10.7986	
671	1	-5.5638	-1.1936	-4.2276	
672	1	-4.3632	8.6754	-10.7986	
673	1	5.6818	8.6754	-8.0554	
674	1	4.4812	-1.1936	-1.4844	
675	1	5.6818	3.9908	-8.0554	
676	1	4.4812	-5.8782	-1.4844	
677	1	14.5262	-5.8782	-4.2276	
678	1	15.7268	3.9908	-10.7986	
679	1	14.5262	-1.1936	-4.2276	
680	1	15.7268	8.6754	-10.7986	
681	1	-14.4082	-11.0626	5.0866	
682	1	-4.3632	-11.0626	2.3434	
683	1	5.6818	-11.0626	5.0866	
684	1	15.7268	-11.0626	2.3434	
685	1	-14.4082	8.6754	5.0866	
686	1	-15.6088	-1.1936	11.6576	
687	1	-14.4082	3.9908	5.0866	
688	1	-15.6088	-5.8782	11.6576	
689	1	-5.5638	-5.8782	8.9144	
690	1	-4.3632	3.9908	2.3434	
691	1	-5.5638	-1.1936	8.9144	
692	1	-4.3632	8.6754	2.3434	
693	1	5.6818	8.6754	5.0866	
694	1	4.4812	-1.1936	11.6576	
695	1	5.6818	3.9908	5.0866	
696	1	4.4812	-5.8782	11.6576	
697	1	14.5262	-5.8782	8.9144	
698	1	15.7268	3.9908	2.3434	
699	1	14.5262	-1.1936	8.9144	
700	1	15.7268	8.6754	2.3434	
701	1	-10.1644	-11.3358	-2.4211	
702	1	-0.11941	-11.3358	-3.2909	
703	1	9.9256	-11.3358	-2.4211	
704	1	-10.1644	4.264	-2.4211	
705	1	-10.1644	8.4022	-2.4211	
706	1	-0.11941	8.4022	-3.2909	
707	1	-9.8076	-1.4668	-9.8619	
708	1	-0.11941	4.264	-3.2909	
709	1	-9.8076	-5.605	-9.8619	
710	1	0.23739	-5.605	-8.9921	
711	1	9.9256	4.264	-2.4211	
712	1	0.23739	-1.4668	-8.9921	
713	1	9.9256	8.4022	-2.4211	
714	1	10.2824	-1.4668	-9.8619	
715	1	10.2824	-5.605	-9.8619	
716	1	-10.1644	-11.3358	10.7209	
717	1	-0.11941	-11.3358	9.8511	
718	1	9.9256	-11.3358	10.7209	
719	1	-10.1644	4.264	10.7209	
720	1	-10.1644	8.4022	10.7209	
721	1	-0.11941	8.4022	9.8511	
722	1	-9.8076	-1.4668	3.2801	
723	1	-0.11941	4.264	9.8511	
724	1	-9.8076	-5.605	3.2801	
725	1	0.23739	-5.605	4.1499	
726	1	9.9256	4.264	10.7209	
727	1	0.23739	-1.4668	4.1499	
728	1	9.9256	8.4022	10.7209	
729	1	10.2824	-1.4668	3.2801	
730	1	10.2824	-5.605	3.2801	
731	1	-12.6363	-11.8048	-3.1757	
732	1	-2.5913	-11.8048	-2.5363	
733	1	7.4537	-11.8048	-3.1757	
734	1	17.4987	-11.8048	-2.5363	
735	1	-17.3807	-5.1361	-9.7467	
736	1	-12.6363	4.7329	-3.1757	
737	1	-17.3807	-1.9358	-9.7467	
738	1	-12.6363	7.9332	-3.1757	
739	1	-2.5913	7.9332	-2.5363	
740	1	-7.3357	-1.9358	-9.1073	
741	1	-2.5913	4.7329	-2.5363	
742	1	-7.3357	-5.1361	-9.1073	
743	1	2.7093	-5.1361	-9.7467	
744	1	7.4537	4.7329	-3.1757	
745	1	2.7093	-1.9358	-9.7467	
746	1	7.4537	7.9332	-3.1757	
747	1	17.4987	7.9332	-2.5363	
748	1	12.7543	-1.9358	-9.1073	
749	1	17.4987	4.7329	-2.5363	
750	1	12.7543	-5.1361	-9.1073	
751	1	-12.6363	-11.8048	9.9663	
752	1	-2.5913	-11.8048	10.6058	
753	1	7.4537	-11.8048	9.9663	
754	1	17.4987	-11.8048	10.6058	
755	1	-17.3807	-5.1361	3.3953	
756	1	-12.6363	4.7329	9.9663	
757	1	-17.3807	-1.9358	3.3953	
758	1	-12.6363	7.9332	9.9663	
759	1	-2.5913	7.9332	10.6058	
760	1	-7.3357	-1.9358	4.0348	
761	1	-2.5913	4.7329	10.6058	
762	1	-7.3357	-5.1361	4.0348	
763	1	2.7093	-5.1361	3.3953	
764	1	7.4537	4.7329	9.9663	
765	1	2.7093	-1.9358	3.3953	
766	1	7.4537	7.9332	9.9663	
767	1	17.4987	7.9332	10.6058	
768	1	12.7543	-1.9358	4.0348	
769	1	17.4987	4.7329	10.6058	
770	1	12.7543	-5.1361	4.0348	
771	1	-11.4662	-13.4049	-1.4514	
772	1	-1.4212	-13.4049	-4.2606	
773	1	8.6238	-13.4049	-1.4514	
774	1	18.6688	-13.4049	-4.2606	
775	1	-18.5508	-3.5359	-8.0224	
776	1	-11.4662	6.3331	-1.4514	
777	1	-1.4212	6.3331	-4.2606	
778	1	-8.5058	-3.5359	-10.8316	
779	1	1.5392	-3.5359	-8.0224	
780	1	8.6238	6.3331	-1.4514	
781	1	18.6688	6.3331	-4.2606	
782	1	11.5842	-3.5359	-10.8316	
783	1	-11.4662	-13.4049	11.6906	
784	1	-1.4212	-13.4049	8.8814	
785	1	8.6238	-13.4049	11.6906	
786	1	18.6688	-13.4049	8.8814	
787	1	-18.5508	-3.5359	5.1196	
788	1	-11.4662	6.3331	11.6906	
789	1	-1.4212	6.3331	8.8814	
790	1	-8.5058	-3.5359	2.3104	
791	1	1.5392	-3.5359	5.1196	
792	1	8.6238	6.3331	11.6906	
793	1	18.6688	6.3331	8.8814	
794	1	11.5842	-3.5359	2.3104	
795	1	-3.5237	-11.212	-13.2896	
796	1	16.5663	-11.212	-13.2896	
797	1	-3.5237	8.526	-13.2896	
798	1	-3.5237	4.1402	-13.2896	
799	1	16.5663	8.526	-13.2896	
800	1	16.5663	4.1402	-13.2896	
801	1	-13.5687	-11.212	-5.5644	
802	1	-3.5237	-11.212	-0.14756	
803	1	6.5213	-11.212	-5.5644	
804	1	16.5663	-11.212	-0.14756	
805	1	-16.4484	-5.7288	-12.1354	
806	1	-13.5687	4.1402	-5.5644	
807	1	-16.4484	-1.343	-12.1354	
808	1	-13.5687	8.526	-5.5644	
809	1	-3.5237	8.526	-0.14756	
810	1	-6.4034	-1.343	-6.7186	
811	1	-3.5237	4.1402	-0.14756	
812	1	-6.4034	-5.7288	-6.7186	
813	1	3.6416	-5.7288	-12.1354	
814	1	6.5213	4.1402	-5.5644	
815	1	3.6416	-1.343	-12.1354	
816	1	6.5213	8.526	-5.5644	
817	1	16.5663	8.526	-0.14756	
818	1	13.6866	-1.343	-6.7186	
819	1	16.5663	4.1402	-0.14756	
820	1	13.6866	-5.7288	-6.7186	
821	1	-13.5687	-11.212	7.5776	
822	1	-3.5237	-11.212	12.9944	
823	1	6.5213	-11.212	7.5776	
824	1	16.5663	-11.212	12.9944	
825	1	-16.4484	-5.7288	1.0066	
826	1	-13.5687	4.1402	7.5776	
827	1	-16.4484	-1.343	1.0066	
828	1	-13.5687	8.526	7.5776	
829	1	-3.5237	8.526	12.9944	
830	1	-6.4034	-1.343	6.4234	
831	1	-3.5237	4.1402	12.9944	
832	1	-6.4034	-5.7288	6.4234	
833	1	3.6416	-5.7288	1.0066	
834	1	6.5213	4.1402	7.5776	
835	1	3.6416	-1.343	1.0066	
836	1	6.5213	8.526	7.5776	
837	1	16.5663	8.526	12.9944	
838	1	13.6866	-1.343	6.4234	
839	1	16.5663	4.1402	12.9944	
840	1	13.6866	-5.7288	6.4234	
841	1	-15.1895	-11.2691	-3.4996	
842	1	-5.1445	-11.2691	-2.2124	
843	1	4.9005	-11.2691	-3.4996	
844	1	14.9455	-11.2691	-2.2124	
845	1	-14.8275	-5.6718	-10.0706	
846	1	-15.1895	4.1972	-3.4996	
847	1	-14.8275	-1.4001	-10.0706	
848	1	-15.1895	8.4689	-3.4996	
849	1	-5.1445	8.4689	-2.2124	
850	1	-4.7825	-1.4001	-8.7834	
851	1	-5.1445	4.1972	-2.2124	
852	1	-4.7825	-5.6718	-8.7834	
853	1	5.2625	-5.6718	-10.0706	
854	1	4.9005	4.1972	-3.4996	
855	1	5.2625	-1.4001	-10.0706	
856	1	4.9005	8.4689	-3.4996	
857	1	14.9455	8.4689	-2.2124	
858	1	15.3075	-1.4001	-8.7834	
859	1	14.9455	4.1972	-2.2124	
860	1	15.3075	-5.6718	-8.7834	
861	1	-15.1895	-11.2691	9.6424	
862	1	-5.1445	-11.2691	10.9296	
863	1	4.9005	-11.2691	9.6424	
864	1	14.9455	-11.2691	10.9296	
865	1	-14.8275	-5.6718	3.0714	
866	1	-15.1895	4.1972	9.6424	
867	1	-14.8275	-1.4001	3.0714	
868	1	-15.1895	8.4689	9.6424	
869	1	-5.1445	8.4689	10.9296	
870	1	-4.7825	-1.4001	4.3586	
871	1	-5.1445	4.1972	10.9296	
872	1	-4.7825	-5.6718	4.3586	
873	1	5.2625	-5.6718	3.0714	
874	1	4.9005	4.1972	9.6424	
875	1	5.2625	-1.4001	3.0714	
876	1	4.9005	8.4689	9.6424	
877	1	14.9455	8.4689	10.9296	
878	1	15.3075	-1.4001	4.3586	
879	1	14.9455	4.1972	10.9296	
880	1	15.3075	-5.6718	4.3586	
881	1	-15.8977	-3.5359	-13.4735	
882	1	4.1923	-3.5359	-13.4736	
883	1	-14.1193	-13.4049	-6.9025	
884	1	-4.0743	-13.4049	-11.9514	
885	1	5.9707	-13.4049	-6.9026	
886	1	16.0157	-13.4049	-11.9514	
887	1	-15.8977	-3.5359	-0.33154	
888	1	-14.1193	6.3331	-6.9025	
889	1	-4.0743	6.3331	-11.9514	
890	1	-5.8527	-3.5359	-5.3804	
891	1	4.1923	-3.5359	-0.33154	
892	1	5.9707	6.3331	-6.9026	
893	1	16.0157	6.3331	-11.9514	
894	1	14.2373	-3.5359	-5.3804	
895	1	-14.1193	-13.4049	6.2395	
896	1	-4.0743	-13.4049	1.1906	
897	1	5.9707	-13.4049	6.2394	
898	1	16.0157	-13.4049	1.1906	
899	1	-15.8977	-3.5359	12.8105	
900	1	-14.1193	6.3331	6.2395	
901	1	-4.0743	6.3331	1.1906	
902	1	-5.8527	-3.5359	7.7616	
903	1	4.1923	-3.5359	12.8105	
904	1	5.9707	6.3331	6.2394	
905	1	16.0157	6.3331	1.1906	
906	1	14.2373	-3.5359	7.7616	
907	1	-13.9566	-5.1398	-12.7158	
908	1	-13.9566	-1.932	-12.7158	
909	1	6.1334	-5.1398	-12.7158	
910	1	6.1334	-1.932	-12.7158	
911	1	-16.0604	-11.801	-6.1448	
912	1	-6.0154	-11.801	-12.7092	
913	1	4.0296	-11.801	-6.1448	
914	1	14.0746	-11.801	-12.7092	
915	1	-13.9566	-5.1398	0.42623	
916	1	-16.0604	4.7292	-6.1448	
917	1	-13.9566	-1.932	0.42623	
918	1	-16.0604	7.937	-6.1448	
919	1	-6.0154	7.937	-12.7092	
920	1	-3.9116	-1.932	-6.1382	
921	1	-6.0154	4.7292	-12.7092	
922	1	-3.9116	-5.1398	-6.1382	
923	1	6.1334	-5.1398	0.42622	
924	1	4.0296	4.7292	-6.1448	
925	1	6.1334	-1.932	0.42622	
926	1	4.0296	7.937	-6.1448	
927	1	14.0746	7.937	-12.7092	
928	1	16.1784	-1.932	-6.1382	
929	1	14.0746	4.7292	-12.7092	
930	1	16.1784	-5.1398	-6.1382	
931	1	-16.0604	-11.801	6.9972	
932	1	-6.0154	-11.801	0.4328	
933	1	4.0296	-11.801	6.9972	
934	1	14.0746	-11.801	0.43279	
935	1	-13.9566	-5.1398	13.5682	
936	1	-16.0604	4.7292	6.9972	
937	1	-13.9566	-1.932	13.5682	
938	1	-16.0604	7.937	6.9972	
939	1	-6.0154	7.937	0.4328	
940	1	-3.9116	-1.932	7.0038	
941	1	-6.0154	4.7292	0.4328	
942	1	-3.9116	-5.1398	7.0038	
943	1	6.1334	-5.1398	13.5682	
944	1	4.0296	4.7292	6.9972	
945	1	6.1334	-1.932	13.5682	
946	1	4.0296	7.937	6.9972	
947	1	14.0746	7.937	0.43279	
948	1	16.1784	-1.932	7.0038	
949	1	14.0746	4.7292	0.43279	
950	1	16.1784	-5.1398	7.0038	
951	1	-11.8909	-3.5359	-12.9826	
952	1	8.1991	-3.5359	-12.9826	
953	1	-18.1261	-13.4049	-6.4116	
954	1	-8.0811	-13.4049	-12.4424	
955	1	1.9639	-13.4049	-6.4116	
956	1	12.0089	-13.4049	-12.4424	
957	1	-11.8909	-3.5359	0.15944	
958	1	-18.1261	6.3331	-6.4116	
959	1	-8.0811	6.3331	-12.4424	
960	1	-1.8459	-3.5359	-5.8714	
961	1	8.1991	-3.5359	0.15944	
962	1	1.9639	6.3331	-6.4116	
963	1	12.0089	6.3331	-12.4424	
964	1	18.2441	-3.5359	-5.8714	
965	1	-18.1261	-13.4049	6.7304	
966	1	-8.0811	-13.4049	0.69958	
967	1	1.9639	-13.4049	6.7304	
968	1	12.0089	-13.4049	0.69958	
969	1	-11.8909	-3.5359	13.3014	
970	1	-18.1261	6.3331	6.7304	
971	1	-8.0811	6.3331	0.69958	
972	1	-1.8459	-3.5359	7.2706	
973	1	8.1991	-3.5359	13.3014	
974	1	1.9639	6.3331	6.7304	
975	1	12.0089	6.3331	0.69958	
976	1	18.2441	-3.5359	7.2706	
977	1	-8.3603	-11.095	-13.6659	
978	1	11.7297	-11.095	-13.6659	
979	1	-8.3603	8.643	-13.6659	
980	1	-8.3603	4.0231	-13.6659	
981	1	11.7297	8.643	-13.6659	
982	1	11.7297	4.0231	-13.6659	
983	1	-18.4053	-11.095	-5.188	
984	1	-8.3603	-11.095	-0.52394	
985	1	1.6847	-11.095	-5.188	
986	1	11.7297	-11.095	-0.52394	
987	1	-11.6117	-5.8459	-11.759	