LAMMPS data file via write_data, version 29 Oct 2020, timestep = 3000

7982 atoms
4 atom types
5288 bonds
1 bond types
2644 angles
1 angle types

-21.195284069596735 21.195284069596735 xlo xhi
-21.195284069596735 21.195284069596735 ylo yhi
-21.195284069596735 21.195284069596735 zlo zhi

Masses

1 15.9994
2 1.008
3 22.98977
4 35.45

Pair Coeffs # lj/cut/tip4p/long

1 0.18481 3.165
2 0 0
3 0.10755 2.31
4 0.10038 4.3

Bond Coeffs # harmonic

1 0 0.9572

Angle Coeffs # harmonic

1 0 104.52

Atoms # full

54 52 1 -1.054 -17.55146050844312 -19.901303016862617 -20.065127851697724 0 0 0
6226 2109 2 0.527 9.639817778042705 -20.727118469343726 -16.505646804326112 0 0 0
56 52 2 0.527 -18.294431285474975 -19.303844582040366 -20.150504893271776 0 0 0
5239 1780 2 0.527 8.404736538300757 -6.346992877420858 -20.09318444733016 0 0 0
7019 2373 2 0.527 17.32507682971161 -1.0081112382247213 -20.35845295011205 0 0 0
95 65 2 0.527 -16.964332499823165 -13.367638983329815 -20.524784206167975 0 0 0
96 66 1 -1.054 -19.85007167052752 -18.07519910141002 -20.158822673438124 0 0 0
97 66 2 0.527 -19.410787737720337 -17.713350311556425 -20.928467398491478 0 0 0
98 66 2 0.527 -19.470258722048968 -17.59966841417486 -19.4199943485589 0 0 0
63 55 1 -1.054 -17.035652654298797 -19.932280136806533 -6.146327903330221 0 0 0
2615 905 2 0.527 -8.773213935838116 -4.473668128381256 -20.59584512559232 0 0 0
684 262 1 -1.054 -16.57070539914308 -16.429223614379623 -19.02481146823713 0 0 0
685 262 2 0.527 -16.696174777878692 -15.944703584534953 -19.840745531369706 0 0 0
686 262 2 0.527 -17.442058167028247 -16.464366736964397 -18.630146313182895 0 0 0
1232 444 2 0.527 -14.255302925969712 -19.382279899296623 -19.772972678290216 0 0 0
182 94 2 0.527 -16.284424322411496 -14.870199908811507 -17.799428819404444 0 0 0
728 276 2 0.527 -16.21726238547657 -14.217686426615234 -15.623938458131825 0 0 0
5278 1793 2 0.527 7.608769860672588 -4.161785874499532 -20.88956598740852 0 0 0
1233 445 1 -1.054 -14.07802622656079 -20.69825281917726 -17.032733105285356 0 0 0
1235 445 2 0.527 -14.646300086203592 -19.9831546313669 -17.31900238888519 0 0 0
1275 459 1 -1.054 -14.78249561814523 -18.317434064121812 -18.509108934449714 0 0 0
1276 459 2 0.527 -15.528190369349208 -17.78845590485092 -18.792610104032743 0 0 0
7911 2671 1 -1.054 -20.897420795236467 -20.814478814558758 -9.80496658507287 1 1 0
6998 2366 2 0.527 18.688989448941594 -10.668025324854396 -0.6910551652773265 0 0 0
5081 1727 2 0.527 5.907202844361628 -21.16238861761155 -10.316421724743625 0 0 0
3455 1185 2 0.527 -4.775570704592425 -20.586793308208613 -5.1954618049371675 0 1 0
180 94 1 -1.054 -15.813252795330705 -14.125027499878549 -17.42664443818689 0 0 0
7871 2657 2 0.527 18.969544542093008 -19.61287894253532 -8.167274631836282 0 1 0
301 134 2 0.527 -20.522502354138187 -8.464245841828157 -20.70871287022349 0 0 1
727 276 2 0.527 -15.571250468982573 -15.356025357724926 -14.863151878038344 0 0 0
141 81 1 -1.054 -18.910634320533543 -16.750926047715264 -17.97437222745377 0 0 0
142 81 2 0.527 -18.807416205632546 -16.932765140292126 -17.040277066455715 0 0 0
1279 460 2 0.527 -14.275543183364693 -18.745725999013132 -12.593038112854318 0 0 0
143 81 2 0.527 -19.463133051860385 -15.96995351460496 -18.00721662888565 0 0 0
5641 1914 2 0.527 13.051889097109662 -20.700300744525336 -15.908646418868281 0 0 0
7908 2670 1 -1.054 19.232328550855105 -21.0396398547357 -14.605963828402235 0 1 0
1230 444 1 -1.054 -13.830006244803243 -19.847821500619347 -20.493146585736895 0 0 0
7033 2378 2 0.527 17.49522022315161 -0.4696833409718195 -4.881411580410241 0 0 0
1234 445 2 0.527 -13.288104716217417 -20.263252440983006 -16.71171931645945 0 0 0
1272 458 1 -1.054 -12.957989378129184 -15.378673317124507 -16.91339519145054 0 0 0
1273 458 2 0.527 -12.095306530525978 -15.749239190626387 -17.099714687370724 0 0 0
1274 458 2 0.527 -12.995394416695316 -14.580694698131978 -17.440731334432574 0 0 0
5277 1793 1 -1.054 7.215851845532921 -3.303868324835431 -21.050333767584533 0 0 0
5251 1784 2 0.527 10.887180515270597 -3.436160436247121 -0.4297286939334377 0 0 0
1857 653 1 -1.054 -9.20432038959104 -18.1971805520426 -19.21878578430483 0 0 0
7418 2506 2 0.527 16.432417986709194 -20.650378647907374 -1.1975631920439085 0 0 0
1860 654 1 -1.054 -10.986178887373258 -17.166352449942558 -17.09770748319731 0 0 0
1861 654 2 0.527 -10.370111315501944 -17.406451359797543 -17.789855251682447 0 0 0
1862 654 2 0.527 -10.431979781462953 -16.9454935068786 -16.34914972066049 0 0 0
2406 836 1 -1.054 -8.538939239500955 -17.032945205366516 -15.517280796799216 0 0 0
2407 836 2 0.527 -7.999086385533676 -16.516753765069303 -16.11590991923422 0 0 0
2408 836 2 0.527 -8.196962961977432 -17.923748153724244 -15.593268529001474 0 0 0
1902 668 1 -1.054 -7.740666680457192 -13.553639890771585 -18.81549847594839 0 0 0
1903 668 2 0.527 -7.13092401344394 -13.940560148135262 -18.18720135617206 0 0 0
1904 668 2 0.527 -8.606417622438988 -13.7155716875921 -18.440659289031117 0 0 0
1821 641 1 -1.054 -11.632403617776694 -19.858962918415767 -16.387712059935915 0 0 0
1822 641 2 0.527 -11.375633316791598 -18.952165487295883 -16.555164431192093 0 0 0
1823 641 2 0.527 -11.381911550001794 -20.015074279109495 -15.47714244731893 0 0 0
2987 1029 2 0.527 -8.013113059336693 -20.450052757898867 -14.60055419350742 0 0 0
1318 473 2 0.527 -13.559447148840924 -16.02800586206928 -15.278896866615408 0 0 0
1859 653 2 0.527 -8.41318180118579 -18.71431467214232 -19.370195875777 0 0 0
2939 1013 2 0.527 -5.081653985480688 -21.027394415004256 -18.237032189624504 0 1 0
2982 1028 1 -1.054 -7.627845643617864 -19.398537008750328 -16.287576581072273 0 0 0
2983 1028 2 0.527 -8.08274700836289 -20.04846967451381 -16.823210601776324 0 0 0
7110 2404 1 -1.054 14.985949371521475 -0.7544763051403365 -10.795228959760601 0 0 0
3067 1056 2 0.527 -5.839904264513713 -15.28253754892555 -16.272364144487067 0 0 0
4514 1538 2 0.527 1.9389755134693232 -20.0020897969339 -3.3398359000264293 0 1 0
2374 825 2 0.527 -13.59056772958833 -18.060527059173864 -10.555263730229363 0 1 0
1277 459 2 0.527 -14.25074369146264 -17.72015698557512 -17.983037829905538 0 0 0
1317 473 1 -1.054 -14.0000529409031 -16.23046703323404 -14.453589070396852 0 0 0
1246 449 2 0.527 -14.121793532809082 -21.019898428291974 -0.8946610986405261 0 0 0
7712 2604 2 0.527 19.54332640081449 -0.3610184499019624 -3.450322399932272 0 0 0
3519 1207 1 -1.054 0.8540398871930961 -20.415849846540116 -19.46296569744952 0 0 0
2979 1027 1 -1.054 -3.942405841425547 -18.791504712023123 -20.209119033039677 0 0 0
2329 810 2 0.527 -10.23869146304413 -20.30863219679517 -10.525929838758557 0 1 0
2981 1027 2 0.527 -3.044550912339151 -19.099147958555367 -20.084765154297536 0 0 0
2984 1028 2 0.527 -6.854409542786318 -19.163818726955526 -16.800367990741 0 0 0
3522 1208 1 -1.054 -2.978876803199636 -15.144577210654404 -20.556681256169327 0 0 0
3523 1208 2 0.527 -2.1666270680672106 -14.993489562572606 -20.073279346419074 0 0 0
6368 2156 2 0.527 12.935495881479188 -11.20896239384484 -1.1383983900790327 0 0 0
3564 1222 1 -1.054 -5.46936959010549 -16.996355426994853 -14.107590444859513 0 0 0
3566 1222 2 0.527 -6.121071595504011 -16.354369869263394 -14.389352231901537 0 0 0
4032 1378 1 -1.054 -2.1919578063478795 -17.08938673074877 -17.347750763064525 0 0 0
4033 1378 2 0.527 -1.5514758966265632 -17.014857248356346 -16.64030470910957 0 0 0
4034 1378 2 0.527 -2.0793536648222712 -16.287919050269743 -17.858848361544723 0 0 0
3477 1193 1 -1.054 -5.390669904530251 -19.278511973204065 -17.875871220677737 0 1 0
3562 1221 2 0.527 1.0560310498202945 -16.844685942119465 -20.040818437198354 0 0 0
3561 1221 1 -1.054 1.7732257640558764 -17.26405668206581 -19.565410334404316 0 0 0
3568 1223 2 0.527 0.07134085576640459 -17.590046264293267 -14.968326702354458 0 0 0
4079 1393 2 0.527 -0.11205689793846219 -14.9112521244911 -15.464678597822989 0 0 0
3479 1193 2 0.527 -4.939568132558598 -18.832500217711072 -17.159049293181674 0 1 0
3478 1193 2 0.527 -4.95484774090356 -18.962378715265157 -18.667306996787154 0 1 0
3066 1056 1 -1.054 -6.513953765055007 -15.731342869953064 -16.782738685706708 0 0 0
3068 1056 2 0.527 -6.114201311841374 -15.866534775687796 -17.641908339498908 0 0 0
3606 1236 1 -1.054 -5.4723417569508435 -15.866271001194935 -19.268268831408502 0 0 0
3607 1236 2 0.527 -4.552939021776151 -15.693603629456955 -19.47109465641953 0 0 0
6223 2108 2 0.527 14.588953060827944 -20.356978306916726 -18.460321068251613 0 0 0
3567 1223 1 -1.054 -0.6885278132163961 -17.038047644448035 -15.153125459945393 0 0 0
3521 1207 2 0.527 1.513741709485405 -19.725827209541865 -19.39286456973923 0 0 0
3520 1207 2 0.527 0.0773013563964291 -20.04906629350566 -19.040586087731715 0 0 0
359 153 2 0.527 -19.20217801094658 -0.07806598289538869 -9.471219152150413 0 0 0
1831 644 2 0.527 -14.5884076056916 -21.101625439023966 -4.7092240968385894 0 0 0
5254 1785 2 0.527 11.32239973339863 -1.0250190905115488 -1.298893169826762 0 0 0
4035 1379 1 -1.054 1.9622010015653082 -18.396163129310445 -15.106863810945214 0 0 0
4036 1379 2 0.527 2.224742434073356 -17.847942999778336 -15.846311088154707 0 0 0
4037 1379 2 0.527 1.99988949569628 -19.290529154017815 -15.44589865710429 0 0 0
4077 1393 1 -1.054 0.21074337809218946 -14.430121670930639 -16.226627027686582 0 0 0
4078 1393 2 0.527 0.8069276597009747 -13.775801204296528 -15.86237330800717 0 0 0
3563 1221 2 0.527 1.697485020444482 -16.928666628028058 -18.6720856707981 0 0 0
4074 1392 1 -1.054 2.2397278392435958 -16.302702288691233 -16.9419694100222 0 0 0
4076 1392 2 0.527 2.964090149883102 -15.745293175399267 -17.226307197296137 0 0 0
5070 1724 1 -1.054 4.592730561067874 -14.862800319024 -17.58448627134964 0 0 0
5071 1724 2 0.527 5.253993275997203 -15.503446488242389 -17.846318708222846 0 0 0
5631 1911 1 -1.054 5.801802577460414 -16.57313267156406 -19.900488018897104 0 0 0
5073 1725 1 -1.054 5.777823586663629 -17.08791367887629 -16.598939378021175 0 0 0
5074 1725 2 0.527 5.210211856945136 -16.86429143440951 -15.861334210845364 0 0 0
5075 1725 2 0.527 6.60290548308404 -16.640464009810753 -16.41110620824754 0 0 0
5637 1913 1 -1.054 6.947453775359289 -19.499963946268807 -17.0498238384408 0 0 0
6991 2364 2 0.527 20.412110537030276 -6.618071577956195 -2.871360267398707 0 0 0
3996 1366 1 -1.054 -1.5913959873403805 -20.252425597468754 -12.993260140140093 0 1 0
2465 855 2 0.527 -8.388977338399274 -15.878350588061004 -0.24323351719842634 0 0 0
4540 1547 2 0.527 4.43146108013806 -16.797161224937092 -20.921611205819882 0 0 0
4075 1392 2 0.527 1.5589794575053268 -15.689170307086762 -16.6655399219625 0 0 0
5072 1724 2 0.527 4.845027381908402 -14.058469012474191 -18.037972704190224 0 0 0
4155 1419 1 -1.054 2.781935248396124 -11.810726475168941 -18.91418978511477 0 0 0
4156 1419 2 0.527 3.5398784890018433 -11.715149231938346 -19.490937630821477 0 0 0
4626 1576 1 -1.054 5.572921895159858 -13.88856523499313 -15.062063658318639 0 0 0
4627 1576 2 0.527 6.469578850962588 -14.19231303059821 -15.203467283153886 0 0 0
4628 1576 2 0.527 5.100986168826825 -14.158702197906456 -15.849815882719405 0 0 0
4045 1382 2 0.527 -2.52652006982445 -20.18186719758279 -2.981273406455351 0 0 0
1375 492 2 0.527 -13.166689175779014 -11.782626231889303 -0.46356031402304154 0 0 0
4541 1547 2 0.527 3.060225994184158 -17.438511390039164 -20.939695112404102 0 0 0
4038 1380 1 -1.054 2.212792852619547 -20.60659870532003 -16.651444574073437 0 0 0
4545 1549 1 -1.054 4.709598448523074 -16.341249505444445 -14.169568608739905 0 0 0
4546 1549 2 0.527 4.490850434264047 -15.413243244613362 -14.084686787405504 0 0 0
5639 1913 2 0.527 6.475692020595641 -18.751746190425404 -16.68394476268217 0 0 0
5632 1911 2 0.527 6.25726741546525 -15.813212163989064 -20.262874794281657 0 0 0
5067 1723 1 -1.054 4.038123833617341 -18.780027601376933 -18.00861603791424 0 0 0
5068 1723 2 0.527 4.232990439971658 -17.85501005075342 -18.159017031575885 0 0 0
891 331 1 -1.054 -21.07278466997868 -3.7038878156002077 -19.928769872212055 0 0 0
2530 877 2 0.527 -6.876744940123668 -7.997282762434278 -20.287813711959945 0 0 0
5634 1912 1 -1.054 7.600717312218368 -18.523149911886083 -20.052541014747487 0 0 0
5638 1913 2 0.527 7.832066393776373 -19.424151826468336 -16.692098209965998 0 0 0
5633 1911 2 0.527 6.4236836539454245 -17.2943379654033 -19.997328471945522 0 0 0
5635 1912 2 0.527 8.421583915397832 -18.4048765805473 -19.574586001770278 0 0 0
5636 1912 2 0.527 7.559765679762052 -19.462815381450966 -20.23031330893472 0 0 0
5674 1925 2 0.527 11.212693650471028 -17.580649602334763 -19.029065157501638 0 0 0
3753 1285 1 -1.054 -6.169366658726982 -0.27621004742276156 -18.157168464806254 0 0 0
6222 2108 1 -1.054 13.894364698801251 -19.74820021960988 -18.208950354719857 0 0 0
6224 2108 2 0.527 14.352008973780034 -18.9321009291522 -18.006972496100595 0 0 0
6807 2303 1 -1.054 10.143351452152313 -19.070975484276993 -19.1863563839525 0 0 0
6808 2303 2 0.527 10.30010796541892 -19.4606877496959 -18.326236710147956 0 0 0
6809 2303 2 0.527 10.090166948579263 -19.818163440780033 -19.782286352540027 0 0 0
6810 2304 1 -1.054 12.403253752713152 -17.042995566570198 -16.074805319476514 0 0 0
6811 2304 2 0.527 13.301231305611754 -17.24625349479827 -16.336675083528775 0 0 0
6812 2304 2 0.527 11.930891466717537 -16.935963950176788 -16.900440567398377 0 0 0
6849 2317 1 -1.054 14.020738197606104 -19.068605195843286 -20.96113314138483 0 0 0
355 152 2 0.527 -19.155490029283477 -0.7785546335219315 -13.427197052228724 0 0 0
6265 2122 2 0.527 12.914786833731878 -15.219780061198282 -20.716216875747325 0 0 0
5679 1927 1 -1.054 7.798508928846523 -15.526175875790909 -15.988842559963523 0 0 0
5680 1927 2 0.527 8.070843929175723 -15.362676802788846 -16.891811332862723 0 0 0
5681 1927 2 0.527 8.604768089379338 -15.773531034010599 -15.536058211663807 0 0 0
5128 1743 2 0.527 9.123199591234016 -17.022059081929477 -0.7199490006046858 0 0 0
4513 1538 2 0.527 1.173188771367812 -19.643640153453973 -2.0840378224682894 0 1 0
6227 2109 2 0.527 10.66176080893798 -19.635129635623635 -16.270838511696805 0 0 0
6815 2305 2 0.527 10.347158858956089 -15.485115437251675 -14.37144032827229 0 0 0
6859 2320 2 0.527 13.680380001223998 -14.430356307885317 -13.842887645646647 0 0 0
5673 1925 1 -1.054 11.529460151228665 -16.739624690871533 -18.69953986075399 0 0 0
5675 1925 2 0.527 12.258079115620422 -16.514273699720356 -19.27797101218789 0 0 0
5676 1926 1 -1.054 9.389164176542053 -14.68016628491476 -18.61266506603986 0 0 0
5677 1926 2 0.527 10.089141976702738 -15.314460517843894 -18.457897035116645 0 0 0
6264 2122 1 -1.054 13.41180007821632 -15.951841546233746 -20.351092159064024 0 0 0
6266 2122 2 0.527 13.916325830759444 -15.565945751321834 -19.63499883037486 0 0 0
3453 1185 1 -1.054 -5.002685955917389 -20.944377036666328 -4.337088556061392 0 1 0
1943 681 2 0.527 -12.51866725455302 -8.393023242967411 -20.017274791742235 0 0 0
1855 652 2 0.527 -11.696897512128103 -19.965627039239866 -20.802653871756156 0 0 1
6813 2305 1 -1.054 9.709005792943604 -16.190951839537252 -14.475417679622646 0 0 0
6814 2305 2 0.527 10.213960049954792 -16.992839970943038 -14.340322641143748 0 0 0
5651 1917 2 0.527 13.094408809998871 -19.99898914694654 -2.0001892652063056 0 0 0
7870 2657 2 0.527 19.908379167319982 -19.763032192217366 -6.98914603526425 0 1 0
6890 2330 2 0.527 19.30331843306057 -19.192560419587533 -20.61456696792864 0 0 1
6888 2330 1 -1.054 18.561138370341165 -18.97074598362647 -20.052233302650976 0 0 1
342 148 1 -1.054 18.443037674187334 -6.875381375543569 -20.66774198241282 -1 0 1
3107 1069 2 0.527 -6.261657473555006 -10.13427181181931 -20.717574034784565 0 0 0
7398 2500 1 -1.054 15.019371600398603 -17.384198914493577 -17.735732430994116 0 0 0
6850 2317 2 0.527 13.825428104667974 -19.149025972526033 -20.027516596405583 0 0 0
5945 2015 2 0.527 13.27536598159558 -2.4816951294452636 -0.23579332853197243 0 0 0
302 134 2 0.527 -20.711571518414498 -6.97649910415935 -20.915611786866695 0 0 1
1817 639 2 0.527 -6.519841237107768 -19.197161935122296 -19.578295215382543 0 0 0
7399 2500 2 0.527 15.585855888732734 -17.702794117194042 -17.032991965482324 0 0 0
7400 2500 2 0.527 15.611731721846578 -17.235781842744583 -18.472843565386526 0 0 0
7438 2513 2 0.527 19.76012287843781 -14.835520887369418 -20.331142698598654 0 0 0
7440 2514 1 -1.054 16.97080777282245 -16.866887124248525 -19.573668423504472 0 0 0
7442 2514 2 0.527 17.334215554366804 -16.21212833566353 -20.169887065293995 0 0 0
7401 2501 1 -1.054 17.42581219483804 -15.681975012348934 -17.110546321680342 0 0 0
7402 2501 2 0.527 18.35915034078769 -15.868409052176656 -17.212408030533844 0 0 0
7404 2502 1 -1.054 19.98441833133069 -17.06935677542533 -17.483314615178795 0 0 0
7406 2502 2 0.527 20.212817051060423 -16.799679677055256 -18.372899557913858 0 0 0
7437 2513 1 -1.054 20.49858717190934 -15.444258028550108 -20.31214051396021 0 0 0
7439 2513 2 0.527 21.135412018679194 -15.030892368258742 -19.72918524111083 0 0 0
7441 2514 2 0.527 17.477961438176944 -17.659412927254213 -19.749593319701674 0 0 0
7403 2501 2 0.527 17.011301499360872 -16.1182511688801 -17.85492418119177 0 0 0
7405 2502 2 0.527 19.944557225129447 -18.024830030338165 -17.524968372705636 0 0 0
7409 2503 2 0.527 17.3563832622448 -16.065093889967464 -14.996596050127899 0 0 0
2991 1031 1 -1.054 -4.878935435100303 -20.055003880714235 -7.00863719957573 0 0 0
7945 2682 2 0.527 21.082217912303353 -20.050065032095205 -16.338076703884433 0 1 0
138 80 1 -1.054 -19.685889838322403 -14.088838931383979 -16.3946735964063 0 0 0
139 80 2 0.527 -20.584810285495454 -14.140348144180646 -16.06980382787664 0 0 0
140 80 2 0.527 -19.172888145973854 -13.806363252039402 -15.63751591941887 0 0 0
135 79 1 -1.054 -20.3607384996755 -13.547053966079677 -19.07709757000006 0 0 0
137 79 2 0.527 -19.869766622019366 -13.533969225249223 -18.255497728818906 0 0 0
177 93 1 -1.054 -17.803100087904838 -11.287834520025205 -17.490383465772375 0 0 0
178 93 2 0.527 -17.006376345999712 -11.008054583905759 -17.039599119354076 0 0 0
179 93 2 0.527 -18.41426011068724 -11.503504296192661 -16.78595067028882 0 0 0
181 94 2 0.527 -15.0168076582654 -14.056912704417638 -17.953227524812164 0 0 0
219 107 1 -1.054 -19.90013707849083 -9.306367070887298 -17.781651298932477 0 0 0
220 107 2 0.527 -19.231572704421094 -9.981318733795526 -17.664549909558474 0 0 0
723 275 1 -1.054 -13.604045209938215 -13.53344252051727 -18.878341735401158 0 0 0
724 275 2 0.527 -13.253713225459745 -13.771955546224902 -19.736613474451577 0 0 0
725 275 2 0.527 -14.110496273433347 -12.737172623060648 -19.038695041135576 0 0 0
765 289 1 -1.054 -14.627138912607272 -11.030561932061955 -20.13026125143287 0 0 0
766 289 2 0.527 -14.71710466457505 -10.086645052147412 -19.99919636036895 0 0 0
767 289 2 0.527 -15.465110598090039 -11.301750818037016 -20.505109476437628 0 0 0
768 290 1 -1.054 -15.239477292374108 -10.12986920337327 -16.40758481078034 0 0 0
769 290 2 0.527 -14.307259789513681 -10.206679003959943 -16.61086241776154 0 0 0
770 290 2 0.527 -15.361201522764128 -10.67453924922403 -15.629916081424433 0 0 0
1858 653 2 0.527 -9.907193072116394 -18.71228371504881 -19.6148796920933 0 0 0
810 304 1 -1.054 -15.727648025299828 -7.445753411403972 -16.04110628428965 0 0 0
221 107 2 0.527 -19.410104410785934 -8.484388912840929 -17.803366003258724 0 0 0
812 304 2 0.527 -15.704932745738779 -8.380988919261961 -16.243763816347283 0 0 0
807 303 1 -1.054 -17.61526020237427 -11.881129773341456 -20.084069992745064 0 0 0
772 291 2 0.527 -18.196069230466403 -9.189018957452063 -13.120869004942673 0 0 0
269 123 2 0.527 -18.304452422178926 -6.749809790680281 -14.379252007052093 0 0 0
809 303 2 0.527 -17.49682748098063 -11.778515922550831 -19.139773734924695 0 0 0
811 304 2 0.527 -15.049585575562581 -7.0630098671407495 -16.597873342537014 0 0 0
1398 500 1 -1.054 -13.57113942904219 -6.595844919366559 -17.80088433529758 0 0 0
7523 2541 2 0.527 20.621918253684722 -8.896838380785635 -17.58759135686063 0 0 0
1395 499 1 -1.054 -17.42205171506517 -6.573957775114867 -20.025409855076155 0 0 0
852 318 1 -1.054 -18.49489549005411 -7.161679792594692 -17.40431119506428 0 0 0
853 318 2 0.527 -17.66929221225329 -7.44228597963143 -17.009478069576176 0 0 0
854 318 2 0.527 -18.27123434396547 -6.964977434073436 -18.314004190348214 0 0 0
183 95 1 -1.054 -19.3798398744122 -11.411629154634667 -15.091873787142564 0 0 0
184 95 2 0.527 -20.293888377488795 -11.130754144485593 -15.13517861848898 0 0 0
260 120 2 0.527 -19.878436680051905 -9.691519259803128 -19.56845924629618 0 0 1
7063 2388 2 0.527 14.53062735557808 -0.1895801332877909 -18.852695671705714 0 0 0
786 296 1 -1.054 -16.60050235612327 -14.00534463821473 -0.6852595322254658 0 0 0
300 134 1 -1.054 -21.133781402300826 -7.747834520547244 -20.537409199333894 0 0 1
2328 810 1 -1.054 -10.871389943944841 -21.006465619583423 -10.355714367936123 0 1 0
1312 471 2 0.527 -9.910760255326906 -13.547207465652619 -20.477782353171534 0 0 0
1314 472 1 -1.054 -10.16780924971634 -14.040302097433294 -17.85483202606605 0 0 0
1315 472 2 0.527 -10.626709757079887 -13.222199105634807 -18.045543998058765 0 0 0
5897 1999 2 0.527 12.571270362817675 -0.2774070025167461 -7.038369856293725 0 0 0
2448 850 1 -1.054 -6.81983061149635 -11.994673655773063 -20.655776721717878 0 0 0
2450 850 2 0.527 -7.3227899236511345 -12.61682164444648 -20.130214049308982 0 0 0
1316 472 2 0.527 -10.080482547179297 -14.049913089232275 -16.901660819886484 0 0 0
1353 485 1 -1.054 -11.188948320498382 -11.485886351103897 -18.86463978989 0 0 0
1354 485 2 0.527 -10.65047547108751 -10.75170409174121 -18.569213117001325 0 0 0
1355 485 2 0.527 -11.989591530902759 -11.42104199923397 -18.344044891812942 0 0 0
1356 486 1 -1.054 -12.673178657345797 -10.642388378719698 -16.588183207614307 0 0 0
1357 486 2 0.527 -12.104708264555242 -10.009032070466578 -16.15005841133096 0 0 0
1358 486 2 0.527 -13.007362092511652 -11.194279598207526 -15.881084254801156 0 0 0
1399 500 2 0.527 -13.378322387215528 -7.419922636797953 -18.248062970351807 0 0 0
4270 1457 2 0.527 1.046396782123697 -0.20092808941823037 -16.438910664357472 0 0 0
4582 1561 2 0.527 6.15723146838187 -13.55612360470818 -20.59284668022491 0 0 0
1942 681 2 0.527 -12.85337630893726 -9.36452547955702 -18.905476526423733 0 0 0
1944 682 1 -1.054 -11.298380428715369 -9.122817936653902 -14.83473975506739 0 0 0
1945 682 2 0.527 -10.469150564335145 -9.137193304185109 -15.312675115792334 0 0 0
1946 682 2 0.527 -11.421873398448989 -8.204125025654477 -14.595984930295707 0 0 0
1986 696 1 -1.054 -9.54409287617261 -9.081832372341667 -18.847038833259898 0 0 0
1987 696 2 0.527 -8.886781366198369 -8.473701550661465 -19.185227058456153 0 0 0
4507 1536 2 0.527 -0.22598243247413308 -19.967580696747298 -7.529678504586029 0 1 0
2490 864 1 -1.054 -6.137408875103176 -11.489021162932914 -17.51434955311508 0 0 0
2491 864 2 0.527 -6.756652782975761 -11.985844644437595 -16.979601739707647 0 0 0
2492 864 2 0.527 -6.459431812382601 -11.589456669203086 -18.41015387409271 0 0 0
850 317 2 0.527 -18.872020365669382 -5.742392586501628 -20.982133794930927 0 0 0
645 249 1 -1.054 -17.13290408743297 -20.802354096344217 -15.133997356764233 0 0 0
2574 892 1 -1.054 -8.92028657758054 -9.005128881802424 -16.129168964853772 0 0 0
2575 892 2 0.527 -8.476550330509879 -9.691475254856151 -15.630894108531837 0 0 0
1988 696 2 0.527 -9.400257054988023 -9.088786500570135 -17.90072096657807 0 0 0
2576 892 2 0.527 -8.354359742958037 -8.238510363641977 -16.03820800339154 0 0 0
2578 893 2 0.527 -6.327645938694115 -10.174694094497356 -16.17621743059346 0 0 0
65 55 2 0.527 -16.834561612695328 -19.56249352395292 -5.286635210045787 0 0 0
5300 1800 2 0.527 16.95199895461676 -7.830033094401067 -1.2819676766822319 0 0 0
1905 669 1 -1.054 -10.349450464744951 -13.497352190326932 -15.072130041184888 0 0 0
2533 878 2 0.527 -8.873119208230428 -12.689030663891344 -15.606875865124895 0 0 0
2535 879 1 -1.054 -6.145658781457145 -12.695216927207156 -13.4390623090193 0 0 0
2534 878 2 0.527 -7.4926424267125356 -12.767241341505656 -14.99034494333419 0 0 0
64 55 2 0.527 -16.497073376049855 -19.42821995097807 -6.756334265728254 0 0 0
1941 681 1 -1.054 -13.22486876777975 -8.65163002389321 -19.425115117413124 0 0 0
2411 837 2 0.527 -9.6602273725329 -20.504845664898973 -13.726754097169323 0 0 0
7951 2684 2 0.527 18.167855335778388 -21.16631059413453 -16.499431564716012 0 1 0
3108 1070 1 -1.054 -2.300172521621441 -9.544669355515516 -16.74561418382619 0 0 0
3109 1070 2 0.527 -2.4845196569155945 -10.0590899377224 -17.53151541553965 0 0 0
3110 1070 2 0.527 -3.1093069380514784 -9.06070148925901 -16.58030245353423 0 0 0
3608 1236 2 0.527 -5.880757518564172 -16.022253776962373 -20.11980912604787 0 0 0
851 317 2 0.527 -20.07080150326913 -4.817804684438116 -20.97965893285575 0 0 0
3647 1249 2 0.527 -2.737318833271665 -10.710460157933763 -20.657589277192724 0 0 0
3648 1250 1 -1.054 -2.3838121925995033 -11.383018264526049 -18.93229310873484 0 0 0
3649 1250 2 0.527 -2.7900802698761105 -12.129684828069083 -18.4921911565131 0 0 0
3650 1250 2 0.527 -1.5249237440615815 -11.704402968133053 -19.20665498843548 0 0 0
4113 1405 1 -1.054 1.6282100818692982 -13.62021088137789 -20.645582730323934 0 0 0
4115 1405 2 0.527 2.1555647395816813 -13.25471509630208 -19.93525462309207 0 0 0
4116 1406 1 -1.054 -1.3382110629560984 -14.616860802527956 -18.385053650655887 0 0 0
4117 1406 2 0.527 -0.7238517771569342 -14.508592912174255 -17.659042482051074 0 0 0
4118 1406 2 0.527 -2.082826106472382 -14.061429831328912 -18.15419516875587 0 0 0
2577 893 1 -1.054 -6.369678751252378 -9.724968377013276 -15.332279837115944 0 0 0
2579 893 2 0.527 -5.484842319685601 -9.801446273319147 -14.975255241421465 0 0 0
4714 1605 2 0.527 -2.3410304038647425 -6.947447529424748 -15.255743797359873 0 0 0
3064 1055 2 0.527 -4.418511861540601 -14.12550623529236 -21.149232583510067 0 0 0
7062 2388 1 -1.054 13.770286000683836 -0.1295680784717277 -19.431082258363418 0 0 0
3150 1084 1 -1.054 -3.9585488443170647 -7.110910378516806 -16.12699133309731 0 0 0
3151 1084 2 0.527 -4.262506477657798 -6.91080605159317 -15.241655439475284 0 0 0
3152 1084 2 0.527 -4.6715849731752925 -6.822063079236038 -16.696551177859984 0 0 0
2529 877 1 -1.054 -7.541539020875044 -7.308728755198393 -20.301714189480375 0 0 0
1991 697 2 0.527 -3.3202712746001204 -10.433391988026308 -14.590657907795379 0 0 0
4159 1420 2 0.527 -0.826510453724083 -9.973181320523308 -15.533130851709537 0 0 0
3111 1071 1 -1.054 -3.794206134764746 -13.300431177268589 -17.572658213892655 0 0 0
3112 1071 2 0.527 -4.405723601241849 -12.56412824792762 -17.560084495106203 0 0 0
3113 1071 2 0.527 -4.116021668434431 -13.891321394714264 -16.891821159459877 0 0 0
3610 1237 2 0.527 -4.082177973250516 -14.190547380809889 -14.452725210792902 0 0 0
3611 1237 2 0.527 -5.282047007296969 -13.626378104631524 -15.183458429537865 0 0 0
4556 1552 2 0.527 3.689889449526941 -20.090749952991118 -7.125981225149864 0 0 0
1838 646 2 0.527 -11.953209641018153 -20.698606772044638 -1.9130411239333966 0 0 0
2954 1018 2 0.527 -9.215644906738682 -20.210559071054494 -7.596002066018938 0 1 0
4584 1562 1 -1.054 1.495682595327164 -11.815795941011917 -16.108049585326803 0 0 0
4585 1562 2 0.527 1.807828339766374 -11.971673744886155 -16.999407620733265 0 0 0
4586 1562 2 0.527 2.264109180256675 -11.492312436097118 -15.63780463435961 0 0 0
5112 1738 1 -1.054 5.817977148779541 -12.65578556984623 -19.168136902186674 0 0 0
5113 1738 2 0.527 5.818437969516044 -11.806122685422054 -19.60895863684596 0 0 0
5114 1738 2 0.527 6.703382005896124 -12.74348179496476 -18.815123406778014 0 0 0
2951 1017 2 0.527 -7.078542206274433 -20.377677597989635 -8.816694165776415 0 1 0
4200 1434 1 -1.054 0.19572376955360227 -8.416283901208953 -18.82961242396723 0 0 0
4201 1434 2 0.527 0.6930179941253414 -8.673824829615985 -18.05332464814723 0 0 0
4665 1589 1 -1.054 5.359606782167091 -10.132287119928236 -20.033382301448317 0 0 0
4666 1589 2 0.527 4.962163833769409 -9.518532712340134 -19.41564718956607 0 0 0
4668 1590 1 -1.054 4.151240730064444 -9.478906004001548 -17.133843774018523 0 0 0
5154 1752 1 -1.054 5.863248301623258 -9.318287988533896 -13.596278761894528 0 0 0
5155 1752 2 0.527 6.644207116353435 -9.197309494130797 -14.136388643704986 0 0 0
5156 1752 2 0.527 5.267812498958101 -8.623047340563605 -13.876188065035882 0 0 0
4157 1419 2 0.527 2.0970889873737626 -11.28612237063288 -19.32895476558599 0 0 0
4202 1434 2 0.527 0.6395219962429337 -7.6306919773616 -19.149205618636394 0 0 0
4588 1563 2 0.527 4.937103665984534 -11.066345275750498 -13.602939881756598 0 0 0
4671 1591 1 -1.054 1.600148191358965 -8.729401437945707 -16.660695966099258 0 0 0
4672 1591 2 0.527 2.480488964674958 -9.052999245134925 -16.85184049983093 0 0 0
4673 1591 2 0.527 1.5838848497506817 -8.625754529158963 -15.709252453666606 0 0 0
4625 1575 2 0.527 0.26976125225307257 -9.990573533875494 -19.626983270743626 0 0 0
4623 1575 1 -1.054 0.39435650722979076 -10.863620936440888 -19.99915987604314 0 0 0
4589 1563 2 0.527 4.907469637316851 -12.334482792193056 -14.429317878818757 0 0 0
4158 1420 1 -1.054 -0.27783650606202315 -10.353239944375346 -14.8470089001993 0 0 0
4160 1420 2 0.527 0.3972439718414513 -10.838850329108498 -15.321035173585518 0 0 0
4587 1563 1 -1.054 4.33850712042986 -11.664434727960595 -14.050406238185126 0 0 0
4713 1605 1 -1.054 -1.559961656245406 -7.186576424513282 -14.756741611593466 0 0 0
4715 1605 2 0.527 -1.43008616520234 -8.116043799219907 -14.945090454693807 0 0 0
1536 546 1 -1.054 -18.504935847739958 -0.16233599117613196 -6.0792810134790525 0 0 0
5780 1960 2 0.527 12.98407475814064 -6.16983196127206 -0.40148756520246565 0 0 0
4114 1405 2 0.527 0.7938293720543754 -13.154510596935229 -20.589149904772594 0 0 0
5118 1740 1 -1.054 8.723961403401844 -20.543289366917882 -10.684620321556242 0 0 0
2132 744 2 0.527 -8.212668103074748 -1.0283337790602616 -1.3506760868253807 0 0 0
7909 2670 2 0.527 18.81198937902955 -20.829079240751746 -13.772157022350925 0 1 0
5201 1767 2 0.527 7.5451598601412435 -8.364196255999877 -16.379764216770155 0 0 0