LAMMPS data file via write_data, version 30 Jul 2021, timestep = 1200000

5000 atoms
1 atom types

-20 20 xlo xhi
-20 20 ylo yhi
-20 20 zlo zhi

Masses

1 12.0107

Atoms # full

1798 0 1 0 -18.87859329116578 -15.42919000778361 -17.158298109600825 0 0 1
4471 0 1 0 -18.577742954594182 -15.89711132588116 -14.694176866067366 0 1 1
3768 0 1 0 -18.300111099299723 -14.989303929253996 -18.450762099576295 0 1 1
1914 0 1 0 -19.262861911926045 -15.387709403990897 -15.809129785987324 0 0 1
4257 0 1 0 -17.674763792424702 -13.707008011785195 -18.586941248035625 0 1 1
262 0 1 0 -16.643014864440598 -13.629721879514058 -19.614828098591634 0 0 0
4160 0 1 0 -18.548982237811174 -15.708024710733579 -19.68350240742498 1 0 1
2166 0 1 0 -18.613977251971964 -13.878206168896371 -13.48735631800786 1 0 1
4391 0 1 0 -19.587406792106375 -13.488926055692408 -14.452610994229664 1 1 0
2165 0 1 0 7.764220480361908 -14.136863356337214 -14.446493314359918 0 1 0
4928 0 1 0 7.913835260564283 -17.86315895585496 -19.351020814692973 0 1 1
3411 0 1 0 8.096998316293442 -14.761132792221803 -17.072588527395965 0 1 0
1565 0 1 0 8.40842845542502 -14.874466707643165 -15.566303824836638 0 0 1
2226 0 1 0 5.429591064790503 -13.760522552976708 -19.190872069863214 0 0 0
467 0 1 0 7.537475947331918 -13.52415980208715 -17.73011390942247 -1 0 1
645 0 1 0 8.241004394923706 -16.395678994793247 -19.123135713711356 0 0 0
1468 0 1 0 8.476446737964466 -19.67604307260306 -17.489594762226886 0 1 1
2937 0 1 0 8.748404169016922 -15.729899540166045 -17.91493978598471 -1 0 0
3343 0 1 0 11.311538646910446 -19.331673197775995 -18.709400957742222 -1 1 0
2733 0 1 0 8.72635189908691 -18.88033872188649 -18.709409957365175 0 1 0
3076 0 1 0 9.470170968737404 -15.84685187316793 -15.207446910155362 0 1 -1
4682 0 1 0 10.300866293723399 -16.463392906786996 -16.1403241349599 0 1 0
4490 0 1 0 11.172075487133826 -17.596488220821225 -15.984668157520806 0 1 1
2656 0 1 0 11.050107968527744 -15.509863217471072 -18.386536913266 -1 1 0
2735 0 1 0 10.096708877657013 -15.969079213053543 -17.51877999403485 1 1 0
3384 0 1 0 12.434429364828517 -17.57595301474259 -15.222522731342387 0 1 0
2806 0 1 0 13.839238464213528 -17.648904834027377 -15.643961690395257 -1 1 0
961 0 1 0 10.686048103115121 -18.888635828132017 -16.474789998679732 -1 0 0
2966 0 1 0 13.654539378934746 -18.97469577271954 -19.404425304949683 -1 1 0
3120 0 1 0 11.92307380393272 -15.274966991828661 -19.434748012117613 0 1 0
2268 0 1 0 13.36340307591525 -15.101412019639069 -19.309551585670413 0 0 1
4023 0 1 0 12.258043133911851 -17.475882122426672 -13.775028924362223 0 1 0
4108 0 1 0 9.955509712217271 -19.19812489685543 -19.35107211932131 0 1 1
3947 0 1 0 9.653629740294724 -16.169916526532987 -13.772121374883103 0 1 1
4739 0 1 0 13.795509627888354 -13.809388218041963 -19.207987585397643 0 1 1
3993 0 1 0 12.354939494156213 -19.301539175723303 -19.712350928873324 0 1 1
1851 0 1 0 9.34919746333441 -19.473484456828114 -16.388256989661848 0 0 1
418 0 1 0 14.080664186599634 -18.960347177859365 -17.96324046594404 -1 0 0
268 0 1 0 11.490404897465707 -19.687160656442064 -17.350410365890877 0 1 0
3305 0 1 0 13.124318346236722 -13.454157246951771 -13.561752711924779 0 1 0
3099 0 1 0 14.39543579592172 -16.303551421151127 -13.651971631892057 0 0 0
2628 0 1 0 14.387589250574978 -17.836174250378722 -17.02516884032573 0 1 0
4951 0 1 0 19.72567051691144 -14.401790066308193 -15.4096383582835 -1 1 1
2895 0 1 0 18.59994422323549 -19.414575728061227 -19.47557376503999 -1 1 0
2006 0 1 0 14.857332533889046 -17.358427603106875 -14.58997964842247 0 1 0
4351 0 1 0 15.732305355546163 -17.191785279252475 -17.202147323485868 0 1 1
1779 0 1 0 18.385895686367142 -14.200278227758139 -15.883998177442448 0 0 1
444 0 1 0 18.03416507422439 -14.350121590244068 -17.273274785627024 0 1 0
3559 0 1 0 16.660277508559744 -14.763022797592301 -17.619225150213985 0 1 0
2977 0 1 0 16.134854943779644 -16.027067332717614 -18.05202334921674 0 1 0
1421 0 1 0 16.141380754064922 -17.845097718811378 -14.404704120500993 -1 0 0
4149 0 1 0 16.851860973706557 -18.603311079878846 -15.438865754303809 -1 1 1
900 0 1 0 16.64088634780023 -18.269844258308687 -16.788071271102147 0 0 0
3062 0 1 0 17.305659198246865 -13.806999307872255 -15.016853873748145 -1 0 0
1337 0 1 0 17.248421224337147 -18.95884978051596 -19.19965650229077 -1 0 1
3520 0 1 0 15.786678594688615 -16.12791045539316 -19.46009822525342 0 1 0
1574 0 1 0 19.09186746594451 -13.769992465545759 -19.477003000618332 -1 0 0
1232 0 1 0 16.797253701107216 -19.24612381210447 -17.8799454876502 0 1 0
613 0 1 0 17.465187072973226 -14.256436445654954 -13.653436438580265 -1 0 0
4674 0 1 0 18.784760788535195 -13.46881763372602 -18.10171489961762 -1 1 1
3660 0 1 0 14.503434877825448 -13.791216073687488 -13.522713360427854 -1 1 0
4095 0 1 0 15.717788623742056 -13.681408406405719 -17.594402783675573 -1 1 1
68 0 1 0 17.792825293436056 -19.54146420024428 -14.897114626089584 0 0 0
475 0 1 0 14.355543204867725 -15.978601083935335 -19.7971863866657 -1 0 1
1588 0 1 0 15.220516008445971 -13.398881822859583 -18.935587616367776 0 0 0
3882 0 1 0 -18.184788811424202 -12.539175677622797 -17.970416006966204 0 1 1
2088 0 1 0 -17.464804002081117 -11.792372027015784 -16.972140586962155 0 1 0
4070 0 1 0 -16.934740152526295 -7.582978080373479 -15.460832682848087 0 0 0
3755 0 1 0 -18.09806767056334 -8.445070128542154 -15.322370055773888 1 1 0
1547 0 1 0 -18.0436606418387 -9.489969625777388 -16.33079289910463 1 0 0
1950 0 1 0 -18.356652175194164 -10.910652327371423 -16.21654318632622 0 0 1
1407 0 1 0 -16.00474174553274 -11.833882217399621 -17.182086982351734 0 0 1
562 0 1 0 -15.383174648970268 -11.709603890348816 -18.491296918413564 0 0 0
846 0 1 0 -19.129445913830928 -8.02665608208464 -14.447802612125527 0 -1 0
1682 0 1 0 -19.401831385017687 -11.965973238855003 -18.38680889280331 -1 0 1
53 0 1 0 -16.047122235473935 -7.834608935600579 -14.273200364608586 1 0 0
1206 0 1 0 -15.146967624513973 -11.68241273054452 -16.085132576639964 0 0 0
3221 0 1 0 -14.741458644982119 -8.269325915773267 -14.688748874774467 0 1 0
3968 0 1 0 -15.312779489799205 -12.07790632900439 -14.649929797774938 1 0 1
897 0 1 0 -17.840048039768238 -9.162214574695144 -18.76426156635046 0 0 1
1769 0 1 0 -19.72326580617781 -11.387296356203937 -15.625594288559709 1 0 1
4548 0 1 0 -17.359525706132587 -8.822585252828844 -17.477177187828964 1 1 1
4329 0 1 0 -16.54149560247973 -7.634079429564336 -16.93188761830582 0 1 0
1376 0 1 0 -15.827863597380455 -12.448136966146619 -19.639195744803203 0 0 0
1202 0 1 0 -19.460038188548353 -11.031960604450168 -19.433046900401095 0 0 0
590 0 1 0 -14.73925546180313 -9.706914498014656 -14.894835353684854 1 0 0
1036 0 1 0 -15.44315374076563 -10.68481885072249 -14.045396571450977 0 0 0
4483 0 1 0 -18.366161097796617 -10.101936540493892 -19.69914069030085 0 1 1
1678 0 1 0 -15.380176898628195 -6.982364399728026 -17.45661290319629 1 0 0
375 0 1 0 -19.76121227461335 -9.044278540792082 -13.657229580596159 1 0 0
861 0 1 0 -15.704330244782401 -12.920870177646949 -13.538673670233825 0 0 0
3694 0 1 0 -19.819547163419188 -6.765584160215105 -14.509783125225038 0 1 1
2509 0 1 0 -14.442584069498587 -10.450578548886524 -16.104548280687336 1 0 1
652 0 1 0 -14.396036900656501 -10.702294445738106 -18.597844639718485 0 0 0
2254 0 1 0 19.999860571630148 -12.161471972871198 -14.461651972740945 0 0 1
4926 0 1 0 -14.071353559379842 -7.322109604063261 -16.86856921928032 1 1 1
2752 0 1 0 -9.878884453023769 -7.279423871006482 -19.49789039535227 0 0 -1
3622 0 1 0 -13.719839003756183 -10.213381469913891 -17.391020018427955 0 1 0
4985 0 1 0 -13.761008022138627 -7.5880499423229955 -15.507120143623165 0 0 0
2946 0 1 0 -11.280886583157972 -9.120474915623701 -16.840014910838356 0 1 1
2840 0 1 0 -12.635665667285307 -9.212251310068549 -17.378809403846354 0 0 0
3903 0 1 0 -11.049940664792885 -8.28253617577659 -15.672731772296894 0 1 1
3997 0 1 0 -12.334004404840208 -7.733748439025455 -15.272587454246684 0 0 0
451 0 1 0 -9.770723561875082 -7.519285308644171 -15.706104241608264 1 1 0
1169 0 1 0 -10.247255973444938 -9.024472053928864 -17.803322501811905 0 0 1
3501 0 1 0 -9.99811171195468 -7.673930459397184 -18.11384887535241 0 1 0
400 0 1 0 -13.136604524376542 -7.913424258679037 -17.74943777766512 0 0 0
2425 0 1 0 -12.71021880218511 -7.275030823628594 -18.95261376802828 0 0 1
3495 0 1 0 -9.40171868404796 -9.973696999574997 -18.56091290932562 1 0 0
1318 0 1 0 -9.945302422282978 -10.664104730968482 -19.63099243641312 0 0 1
4725 0 1 0 -9.730503467902153 -6.861662955618268 -16.98814264949757 0 1 1
3356 0 1 0 -8.933938635757114 -6.7189833181954 -14.685076389325307 0 0 0
2400 0 1 0 5.540396398923802 -0.061903103493918116 -4.0184605039978525 0 0 1
3387 0 1 0 19.205879448600406 -13.206295426800262 -0.05798832856866516 0 1 -1
2630 0 1 0 -8.05066841346246 -9.83202862580131 -18.377576304928123 0 1 0
1560 0 1 0 -5.5959481778894595 -7.385481109551243 -15.78823880285809 0 0 1
1835 0 1 0 -6.2650044634359165 -8.095119628289018 -16.771879378958374 0 0 1
1146 0 1 0 -7.074268063884463 -8.920216178766996 -18.02887500527208 0 0 0
4830 0 1 0 -6.1728053533837395 -7.60474196143918 -18.286882716042616 0 0 1
1081 0 1 0 -4.238415184477827 -6.961893573319093 -16.258302337977952 1 0 0
2845 0 1 0 -6.275661809454706 -7.160708876586768 -14.528756678655586 0 1 0
1437 0 1 0 -2.966629325386939 -7.349417208376184 -15.59624645448567 0 0 1
3294 0 1 0 -4.077446541148403 -7.236890944855524 -13.45833552158233 0 1 0
1606 0 1 0 -7.6745511756403495 -6.854972721988235 -14.041778849405237 0 0 0
3284 0 1 0 -2.8999839708321757 -7.095705577920213 -14.158375448646247 0 0 0
318 0 1 0 -6.4191419717879885 -19.887895126477005 -1.7351767036487669 0 0 0
236 0 1 0 -2.4451211391779593 -10.066858343049672 -19.155090585168313 0 0 1
1527 0 1 0 -2.0637617831450816 -9.06451376582359 -18.346730579411943 0 1 1
3014 0 1 0 1.4705829397820596 -7.012487587302718 -19.3783002313229 0 0 0
892 0 1 0 -1.753587391371566 -7.922581639855281 -17.58308166361946 0 0 0
1633 0 1 0 -1.7903319919589973 -7.873336271563712 -16.14777835412292 0 0 0
558 0 1 0 0.5375453673804544 -8.713029509503249 -16.00567233326217 0 0 0
3547 0 1 0 1.5307338190841935 -9.60595487357062 -15.488454274345527 -1 1 0
3869 0 1 0 0.7368001122204749 -8.297201559462184 -17.32864170742348 0 1 1
4425 0 1 0 -0.5458500043004698 -8.077003765504477 -15.407340498011772 1 0 0
2429 0 1 0 0.43677491392701734 -7.314478630860584 -18.314208752134174 0 0 1
3093 0 1 0 1.8954278256478323 -9.503070930752171 -14.100596273961552 0 1 0
1583 0 1 0 -0.3008984488421407 -7.350805032152244 -14.01263012789182 0 0 0
4744 0 1 0 2.2679098743163943 -10.477729428450955 -16.433819216908958 0 1 1
835 0 1 0 -0.9571229764049718 -6.864547340155065 -18.17506033551781 1 0 0
4457 0 1 0 6.1601725962919645 -13.149719977470937 -18.11052329096564 0 1 1
4759 0 1 0 3.590482522094787 -10.58525440492423 -16.955404320348727 0 1 1
2812 0 1 0 3.549508277804141 -11.64847901121638 -19.21363852893621 -1 1 0
2356 0 1 0 3.6503582459138992 -8.102372287274553 -14.669708508479081 0 0 1
2635 0 1 0 7.467501095597565 -12.769598779989655 -14.622128667940373 0 1 0
3275 0 1 0 4.250678235016452 -8.328968054200839 -15.978149346948223 0 1 0
3281 0 1 0 4.475506167771207 -9.664876479799522 -16.378958525019044 0 1 0
2851 0 1 0 4.182029422713125 -11.512052144278632 -17.92285660218288 0 1 0
4419 0 1 0 5.65891203206931 -10.201219947892113 -15.837937084156096 0 1 1
2786 0 1 0 5.419487423782376 -12.065856995652936 -17.529932924746646 -1 1 1
1336 0 1 0 6.064011840324571 -11.426352132668539 -16.401802232275976 1 0 1
2497 0 1 0 7.216060868190278 -8.91360539157619 -14.56813692379766 0 -1 1
4705 0 1 0 7.330286859530072 -11.971987465893971 -15.918958088915383 0 0 0
4861 0 1 0 6.109744069841228 -9.842913414971491 -14.566526361606345 0 1 1
3245 0 1 0 5.1084905178392805 -7.233111455518309 -16.439239526541698 -1 0 0
1483 0 1 0 4.38600021331041 -6.8365527186316095 -18.988611437831025 0 0 1
272 0 1 0 3.3399287756933247 -9.232635752273133 -13.830390094403551 0 0 0
4296 0 1 0 6.924434471015929 -7.537362844300861 -14.833820166618125 0 1 1
337 0 1 0 8.056861424756658 -6.751022279372235 -14.909040662596864 -1 -1 0
3126 0 1 0 5.732175302921251 -6.80574411687436 -15.1696370952374 0 0 0
2903 0 1 0 3.436805977035754 -6.642518523766658 -14.350702136966193 0 0 0
1873 0 1 0 7.326520324277974 -11.95085083418181 -13.446048444980814 -1 0 1
2052 0 1 0 3.314737788953937 -13.07473914565274 -19.8296744318557 0 -1 1
4992 0 1 0 4.353056453290688 -7.99659704111955 -19.95911152889413 0 1 1
4340 0 1 0 3.130887740329993 -8.927880808240369 -19.92579544796886 0 0 1
3533 0 1 0 8.567941002765947 -9.362577631083859 -14.363853248192463 0 1 0
739 0 1 0 8.531854077835014 -12.439605149425642 -17.841370822447484 0 0 0
581 0 1 0 8.614174615590656 -11.721576370429112 -16.596196702993705 0 0 0
848 0 1 0 9.064044668211025 -11.83183833893389 -19.086325065559464 0 1 0
2819 0 1 0 13.46867727596609 -12.396031578086175 -18.80558612416745 0 1 0
826 0 1 0 10.347896299205305 -11.406764746653431 -19.37289074459471 -1 0 0
926 0 1 0 10.853856368385891 -7.968154943192065 -16.800762788606978 0 -1 0
2983 0 1 0 11.339947866932034 -12.211291988315141 -14.728582042163547 0 1 0
4305 0 1 0 11.796166681331659 -11.481027626309986 -17.25574616717188 0 1 0
1059 0 1 0 10.9472803858942 -11.623438031270494 -16.054319472170167 0 0 0
1136 0 1 0 9.647855950543502 -10.906598447961755 -16.134839976840222 -1 0 0
2604 0 1 0 11.58691788972106 -8.1977799273249 -18.015169442770414 0 0 0
2905 0 1 0 9.575894162785827 -9.668095084701797 -15.42591120664591 0 0 0
122 0 1 0 11.674549864354304 -9.337336416824563 -18.87395300786641 -1 0 0
3592 0 1 0 11.237324382572703 -10.684268102739184 -18.486168163161405 0 1 0
3065 0 1 0 11.816972104141607 -8.79416407953964 -14.682285891994669 -1 0 1
3919 0 1 0 13.129798101463633 -12.049578535191495 -17.481479791752186 0 1 1
3118 0 1 0 10.769693635029887 -8.806783486957384 -15.666728324021113 1 1 1
2957 0 1 0 12.93238572715076 -9.706357884762758 -14.70351394983633 0 1 0
3663 0 1 0 13.053279223925108 -10.890323877275142 -13.763762604619176 0 0 0
1353 0 1 0 12.6249610053203 -12.200751463878095 -14.122204007604255 -1 0 1
676 0 1 0 13.852147010883247 -9.589170533058475 -15.763149385981409 0 0 0
833 0 1 0 10.421598578971697 -12.774350326767077 -13.68721581702954 0 0 0
309 0 1 0 12.244642446790763 -6.944085823887659 -18.45648002284322 0 0 0
3151 0 1 0 13.619019670701107 -6.958067022464897 -18.11234332236822 0 0 -1
3988 0 1 0 11.79095050337746 -7.588775419518625 -13.713355216416804 -1 1 1
1854 0 1 0 14.197777308519438 -8.189335488725755 -17.717146038554933 1 0 1
2068 0 1 0 12.986455844769164 -6.94488109956465 -13.349007102607715 0 0 0
877 0 1 0 14.20209671093303 -8.300715998679436 -16.277736094397206 -1 0 0
2033 0 1 0 14.219513301634963 -11.971541712252058 -16.509756142244417 0 1 1
1702 0 1 0 14.39338553149084 -10.212441509202302 -19.52115809837537 0 0 1
794 0 1 0 14.542411710347317 -11.599154519753096 -19.46862435251413 -1 0 0
3605 0 1 0 16.078585434264856 -12.999283884192591 -15.195691325754396 -1 1 0
4805 0 1 0 14.659528701666993 -10.615942167171943 -16.362853321794816 -1 1 1
837 0 1 0 15.263108705922189 -12.976364545908941 -16.421282292317564 0 0 0
745 0 1 0 15.380121610438632 -12.681522430513944 -13.938223366898198 0 0 0
4817 0 1 0 19.340766408286473 -12.239860026980306 -17.72022239338247 0 0 1
3460 0 1 0 14.718404296244046 -7.244327300770034 -15.532235070475677 0 0 0
2701 0 1 0 19.18138496660872 -11.366983616543703 -16.55338295325541 0 1 0
560 0 1 0 18.131723402024765 -10.484158396020188 -16.148828823127815 0 0 0
3825 0 1 0 17.02940338089788 -10.057624200768688 -16.990478549915533 -1 1 1
4943 0 1 0 15.65069610075397 -10.147531862232778 -17.329309561668516 0 0 0
4880 0 1 0 18.758529107890105 -8.986153156877878 -14.055743836762248 -1 1 1
4407 0 1 0 14.793891074951242 -9.409059087394109 -18.39088382645696 0 1 1
1378 0 1 0 18.066426796650955 -10.125389481798068 -14.742331499340668 0 0 1
3644 0 1 0 18.048812317588045 -7.760455935353959 -14.152036097125745 0 1 0
4812 0 1 0 16.651390854712023 -7.672510487272559 -14.21262219263457 -1 1 1
2938 0 1 0 15.251811600503567 -7.5262916967739395 -14.257559916070578 -1 1 1
3877 0 1 0 17.638117434495324 -11.08459744096774 -13.804765062699584 0 0 1
26 0 1 0 18.830092858779082 -12.015114940213188 -13.463386229623028 -1 0 0
3928 0 1 0 -7.112495708593484 -0.1054927296255284 -16.942258710630032 0 0 0
1192 0 1 0 -15.167328371497309 -6.157739426797776 -18.696111863293964 -1 0 0
3174 0 1 0 -14.124273420884546 -5.524623672923161 -19.641499940441637 0 1 0
830 0 1 0 -11.550425190642652 -3.6120284168728047 -19.396665516385475 1 0 0
117 0 1 0 -10.50863939796943 -5.116850425822074 -18.24363253939071 0 0 0
384 0 1 0 -11.744424522308579 -4.945383452808546 -18.938139184289597 0 0 0
932 0 1 0 -10.716777163960256 -2.889369656956991 -18.609879599252316 1 0 0
2104 0 1 0 -10.129230229416043 -5.528626510226118 -16.979135549518265 1 0 1
4410 0 1 0 -9.876954086079447 -1.5002325142258004 -18.276426333988095 0 0 0
2721 0 1 0 -9.73711844231172 -4.653678443247101 -15.939378423339393 0 0 0
2337 0 1 0 -9.330528348998246 -5.30891821270817 -14.733539898428463 0 0 1
12 0 1 0 -9.331016018025071 -4.982799904816453 -19.10572433052994 0 0 0
1789 0 1 0 -9.249506905488653 -3.3420369479308176 -16.26843763204728 0 0 1
3482 0 1 0 -9.300285756954512 -2.981541447437017 -17.716516158095057 1 0 0
2013 0 1 0 -12.7689806943036 -5.837319493548758 -19.237312249806013 0 0 1
3691 0 1 0 -8.846993412028514 -4.440951673821337 -13.646367324701398 0 1 0
2554 0 1 0 -8.903954241696761 -2.5178817497689603 -15.218864213031628 0 0 1
3225 0 1 0 -9.439450168260649 -0.26385237357902724 -17.60460387559199 0 0 0
2573 0 1 0 -8.936232147612055 -6.165625693866683 -19.749417961406284 0 0 1
4850 0 1 0 -8.916767061010095 -3.043069042119586 -13.835447194909149 0 0 0
4013 0 1 0 -8.592660943084786 -3.7989572677877623 -18.885859223394426 1 0 0
3665 0 1 0 -10.120307169603649 -1.356145822766649 -19.838384055624818 0 1 0
1387 0 1 0 -8.5392691268632 -1.1703156145337683 -15.347803304869998 0 0 1
2775 0 1 0 -8.48664039370102 -0.4694406451444154 -16.594114929486242 1 0 -1
1303 0 1 0 -5.431722266104339 -6.470766024493817 -18.57469366495293 0 0 1
2507 0 1 0 -7.824276792729375 -3.1529029746818287 -19.83580520625294 0 0 1
391 0 1 0 -7.891842913234145 -0.5842938186584434 -14.265325520005982 0 0 -1
177 0 1 0 -4.2012628992009065 -6.347666211396462 -17.649202825681154 0 0 0
2797 0 1 0 -5.293329754153727 -2.8449251853458724 -19.715913009872008 0 0 0
1944 0 1 0 -5.659399439521448 -5.499843482219293 -19.599195856194584 0 1 1
131 0 1 0 -4.899197398921261 -4.232847318675979 -19.427136132043675 0 0 0
866 0 1 0 -3.6090706372550714 -4.422408858262271 -18.936859297884595 0 0 0
2295 0 1 0 -6.905754627150034 -0.9186375567468563 -19.39464283421269 1 1 1
3819 0 1 0 -6.6317983053610225 -2.372153512509279 -19.617250222700978 0 0 0
508 0 1 0 -3.3040769276136444 -0.6208572703212091 -16.480146311149902 0 0 0
3428 0 1 0 -3.1359078102897757 -5.522037125569369 -18.188617007296845 1 1 0
3574 0 1 0 -6.43321321139585 -0.26948950058565824 -18.188884970902976 0 0 0
415 0 1 0 -5.4038443229030415 -6.951838184347323 -13.376848274232353 0 0 1
3469 0 1 0 18.340939413721866 -1.8099197442523411 -5.501775785158878 -1 1 0
1082 0 1 0 19.48469999629298 -5.553987422701713 -1.6112641416104005 -1 0 0
2312 0 1 0 -2.5328114362583825 -3.470176530181514 -19.1817611690212 0 0 1
495 0 1 0 -2.370118879781449 -1.4329803226412414 -15.956916052672522 0 0 0
2935 0 1 0 -1.6339053616418393 -5.57459117143989 -18.16303969498702 0 1 0
984 0 1 0 2.028711568035318 -1.5029560925501448 -16.327222414918563 0 0 0
2179 0 1 0 -1.2789368706338666 -2.1488075156014106 -15.408812911208521 0 0 1
2220 0 1 0 1.8256654787313549 -1.891413043076063 -17.668638169620326 0 0 1
788 0 1 0 -1.3535803527540111 -4.08211710437009 -18.478652737662554 -1 0 0
2685 0 1 0 1.0318568662002388 -3.208454025168162 -18.005588151412088 0 0 0
1859 0 1 0 -0.3646687865237784 -3.4397983551164937 -17.60507768227769 0 -1 1
3052 0 1 0 -0.6967296955027535 -3.2277586939194545 -16.16330903532612 0 0 0
399 0 1 0 1.720875119727839 -2.236659543701362 -15.066762491047083 0 0 0
1720 0 1 0 1.5093105740154862 -4.434375828177865 -18.735443250840234 0 0 1
3658 0 1 0 0.0659993426154852 -4.08347486703279 -15.284509357393034 0 0 0
691 0 1 0 1.4185229062780396 -3.71086247836489 -15.218011976393923 -1 0 0
269 0 1 0 0.6742732822833054 -1.3728460663108346 -14.271738124719167 0 0 -1
3678 0 1 0 -0.603178892470175 -1.9203902511584259 -14.11619008676311 0 0 0
4686 0 1 0 2.084346496733884 -5.74600288382826 -19.16101263699758 0 0 0
4236 0 1 0 2.3487221645874365 -4.548148372462759 -14.605346691262787 0 0 1
2647 0 1 0 -0.14393231978722293 -4.922696421775001 -14.080822016029343 0 1 0
3510 0 1 0 2.2599263398065657 -0.8167418115096357 -18.698321010774887 0 0 0
4051 0 1 0 2.1294795687971253 -5.933822878340112 -14.398689151344996 0 0 1
4549 0 1 0 0.6375364454423674 -6.124726375448938 -14.118943955091588 0 0 1
1790 0 1 0 1.0029655956782086 -0.19404078209027786 -13.547301831964392 0 0 0
3119 0 1 0 2.610865319080184 -0.2795394995104813 -16.001449532592932 0 0 0
1362 0 1 0 4.173242786710805 -4.544042251583953 -19.747745890718445 -1 0 1
2424 0 1 0 5.121385041383366 -6.54546634679337 -17.672986766979445 -1 0 0
2380 0 1 0 3.773757828288502 -0.31548884614364975 -15.052868874092535 0 0 0
4881 0 1 0 3.1261120919317595 -2.462173652855446 -14.18234592855605 1 0 1
2311 0 1 0 7.36904928638348 -0.795962508383595 -17.10655033405605 -1 0 1
3066 0 1 0 5.792169035644942 -5.224686620221663 -17.64521644079751 -1 1 0
2200 0 1 0 4.7191499476842305 -5.947569437193341 -14.469077540762656 1 0 0
4702 0 1 0 6.136035331370526 -2.7339553189248242 -18.167920069154516 0 0 1
4377 0 1 0 6.2114766842666205 -3.8595781852076585 -17.28527229872312 0 0 1
2140 0 1 0 6.901353119284553 -3.677106369928471 -15.998558184295257 0 0 0
2161 0 1 0 3.485925049684029 -1.1265823008821585 -13.786015536307508 0 0 1
3326 0 1 0 7.202797960689901 -0.8407408910868931 -14.538393804086493 0 0 0
1840 0 1 0 6.240608343611516 -1.399115571488038 -17.720067902206868 0 0 1
4635 0 1 0 6.337373688793807 -3.91881200030963 -14.653184514431608 0 1 1
2600 0 1 0 4.908121892532872 -4.48272608120858 -14.498516030065526 -1 0 0
3196 0 1 0 7.824493023500736 -1.2369714754205814 -15.750410875037096 0 0 0
4954 0 1 0 3.622232827007354 -3.817448469348013 -14.335219971505037 0 1 1
3109 0 1 0 3.4852615829125075 -5.6849290437128515 -19.384909005447394 -1 0 1
3440 0 1 0 6.093781513961473 -2.9186812345907707 -19.645967001442333 0 0 0
1388 0 1 0 7.399914821772089 -3.814877379637703 -13.594711051314109 0 0 1
1304 0 1 0 3.3392629881939513 -0.8268892208558977 -19.691117393428144 0 0 1
1493 0 1 0 4.651286757040793 -0.3394237338130324 -19.36006860862081 0 0 1
169 0 1 0 5.28508525130103 -0.3757581516333169 -17.98052993885011 0 0 0
4150 0 1 0 8.326141485313785 -4.906303902440776 -13.45460751159323 0 0 1
2184 0 1 0 8.425645550197416 -3.494385893030242 -16.02296769220605 0 0 1
1512 0 1 0 8.599864873796278 -5.542137385435151 -14.705445789414735 0 0 1
1322 0 1 0 10.463952185988267 -6.577874587156093 -16.669711476464407 0 0 0
4999 0 1 0 9.631642481585946 -0.4016302575487056 -18.030770127757528 0 0 1
2498 0 1 0 12.76051926690513 -0.49024750737437534 -19.17512015193321 0 0 1
713 0 1 0 12.34200205561271 -1.8306906295398062 -19.44564833925992 0 0 0
2473 0 1 0 10.018162872039525 -0.9702941639172616 -19.290839168559792 0 0 1
4594 0 1 0 10.22153239423317 -5.209641440004035 -16.46033074593387 -1 0 1
3424 0 1 0 11.552661753659068 -5.895854028514725 -19.11544346830685 -1 0 0
2260 0 1 0 9.12256667891693 -4.717349018032975 -15.73663688458188 0 0 0
88 0 1 0 11.179684180152687 -4.28062495803088 -16.954032521051666 0 0 0
441 0 1 0 11.479537233303232 -4.390381062725771 -18.484899940565622 0 0 0
1050 0 1 0 11.616866443234187 -2.134878274626174 -15.641500253154069 0 0 0
786 0 1 0 12.05257264316658 -3.400361442316204 -16.201843507093137 0 0 0
4223 0 1 0 8.968663394675888 -2.13403256450225 -15.844268848838254 -1 0 0
2316 0 1 0 12.53283555713248 -1.0767569036016353 -15.044788375165112 -1 0 1
505 0 1 0 13.400555558724964 -3.8392408498735167 -16.254643691979165 -1 0 0
947 0 1 0 10.294274483967628 -1.5740090121461572 -16.03463036925482 0 0 0
4680 0 1 0 12.94594638668554 -3.9512750527459475 -18.59335014322277 0 0 1
3743 0 1 0 10.531634349202532 -3.435740007002788 -19.29428464037644 0 0 0
4596 0 1 0 10.923597582167663 -2.0907584658022222 -19.259591178539743 0 0 1
3711 0 1 0 13.667543496182782 -4.467088797939284 -17.52378797575429 0 1 0
2330 0 1 0 13.317439537884445 -1.1710747574980211 -13.83766099559691 -1 1 1
2621 0 1 0 10.52404261072645 -0.42371246846073807 -16.943414130484236 0 0 0
1721 0 1 0 13.215361682980891 -2.9518532743920445 -19.59274599840013 0 0 1
868 0 1 0 14.235986383753314 -3.6454594869573267 -13.916817396375274 0 0 0
3935 0 1 0 14.109069799470571 -5.832128580390656 -17.417789837094354 -1 1 1
2719 0 1 0 14.169055400326863 -2.3449783682490932 -13.320745614058715 -1 0 0
1022 0 1 0 14.40017452986696 -3.980577678301036 -15.276343404175712 -1 0 1
4161 0 1 0 18.722038250866614 -6.60418336550506 -14.52048214282162 0 1 1
1861 0 1 0 17.976724975711036 -5.42648462345009 -14.806793632627 -1 0 1
1287 0 1 0 14.865613202388191 -6.038010565913153 -16.23589345481884 -1 0 0
129 0 1 0 15.459109589934384 -4.932085682669968 -15.626154493085922 0 0 0
4272 0 1 0 16.85833145505128 -4.81489253363621 -15.403517528229138 0 1 1
4743 0 1 0 -18.4719074929515 -15.30921626231334 -13.393246700730577 0 1 1
824 0 1 0 -16.30881641199224 -16.282333417328054 -10.55242694438294 0 0 1
4684 0 1 0 -18.35109877544108 -15.789284042878958 -12.090236306762403 0 1 1
1110 0 1 0 -17.18731393365793 -17.018621281217055 -8.475497794704488 0 0 0
4994 0 1 0 -17.261522251473973 -16.452021783296 -11.572441354519125 0 1 1
3330 0 1 0 -16.93450617732105 -15.913171685839961 -9.307850843995846 0 1 0
3140 0 1 0 -16.598870361276212 -18.304327043067026 -8.859154693580697 0 0 0
2146 0 1 0 -15.203262064203367 -18.49391830235865 -9.131398710210028 0 1 0
879 0 1 0 -17.640426647971058 -17.097199760877842 -7.153049701928166 0 0 1
4465 0 1 0 -18.265849840999355 -14.10056471229187 -10.34758295414646 1 1 1
2255 0 1 0 -19.149863230683515 -15.065835395247511 -11.096806239909036 1 -1 0
4147 0 1 0 -16.157604099926704 -14.2039589970046 -7.09653852582116 0 1 0
3182 0 1 0 -19.494774994416353 -18.365717354213007 -8.094631282281975 1 0 0
4599 0 1 0 -17.532321455296795 -14.571160896864782 -9.19791930184963 0 1 0
2325 0 1 0 -18.77153671958043 -19.346779568104502 -8.831137752929024 0 0 0
463 0 1 0 -15.16273161463156 -15.205810689211665 -7.257914420456855 1 0 0
482 0 1 0 -14.914380118242711 -16.56874838076712 -10.48069676951934 1 0 0
212 0 1 0 -17.147929583412875 -13.770759207279575 -8.014934411212966 1 0 0
474 0 1 0 -18.841926980691035 -17.764685152328276 -6.932634991081516 0 0 0
1401 0 1 0 -17.390131605799112 -19.45503586080186 -8.607588248854537 1 0 1
1027 0 1 0 -14.47028276020858 -19.25770026616483 -8.154881973019954 0 0 0
1710 0 1 0 -15.124867630867122 -13.873773572281399 -12.714618684889725 0 0 1
749 0 1 0 -14.321237620615856 -17.78254083997896 -9.978192020032083 0 0 0
3124 0 1 0 -14.49846415807442 -14.72404025805121 -11.876053458107187 1 0 0
4741 0 1 0 -11.944554943744736 -19.903720562490637 -8.524029561222243 1 0 0
1145 0 1 0 -14.099929098487168 -15.406054068372038 -10.727711447907748 0 0 0
3137 0 1 0 -12.270850531605301 -19.490003873662832 -9.853195360385001 1 1 -1
1810 0 1 0 -12.860105075461895 -18.145365716847007 -9.832608027665922 1 0 0
2879 0 1 0 -13.21166871238701 -15.125806622083601 -9.636923532125031 0 1 0
420 0 1 0 -13.805001149287914 -14.75951169418837 -7.342864149187106 0 0 0
95 0 1 0 -12.043864750000726 -16.383132465424257 -7.89521553774676 0 0 0
1469 0 1 0 -12.274306589395826 -17.605277008247437 -8.590667499238089 0 0 1
4453 0 1 0 -12.919391930645043 -15.319637072518622 -8.299774693755392 0 1 0
716 0 1 0 -12.168107481580313 -18.757911314910164 -7.395482068911133 0 0 0
3682 0 1 0 -13.715061687689717 -18.520097802471987 -7.206464416969162 0 0 1
3038 0 1 0 7.955830075818266 -14.512032740635094 -13.057526567094891 0 1 1
3274 0 1 0 6.687740743984032 -19.098134302226285 -8.644538197074967 0 1 0
3720 0 1 0 7.112738033987841 -14.648124818355601 -11.780350454535169 1 1 0
2692 0 1 0 7.212937364302303 -15.789680760023902 -9.473521411994607 -1 0 1
623 0 1 0 7.442826976899515 -16.77215806897654 -8.478485395474376 0 0 0
1440 0 1 0 7.5422561741803245 -15.81364411795403 -10.840258075578467 0 0 1
2208 0 1 0 6.356871420358366 -17.757738109796826 -8.241395812608568 0 0 1
2418 0 1 0 5.5525317871263615 -17.57487893221794 -7.026008097194666 0 0 1
2866 0 1 0 7.209248287061281 -14.426782263267684 -9.041827038403301 0 1 1
3301 0 1 0 7.404803996682299 -19.27526006841905 -9.913246290875312 0 1 0
344 0 1 0 6.2199587613735385 -13.616647656376891 -9.68424550845686 0 0 0
2751 0 1 0 8.435928309239019 -14.184969987753684 -6.97026234094166 -1 1 0
2159 0 1 0 8.395220490876753 -14.026390090957452 -8.404373421196214 -1 0 1
307 0 1 0 6.327968496959005 -13.514915816259931 -11.161730652791395 0 0 0
2877 0 1 0 8.678618960741895 -17.068315518650152 -7.601476054033689 0 1 0
1498 0 1 0 6.99000027272067 -19.81630025555848 -11.146081957784125 0 0 0
4590 0 1 0 17.215453262109328 -1.295038314893279 -6.082156139294646 0 0 0
4053 0 1 0 10.772027098952895 -14.055817925392004 -13.289059529750226 0 1 0
1261 0 1 0 11.098468647420244 -18.081584899213027 -13.138721794253588 0 0 1
1946 0 1 0 8.879250454114429 -16.10227040199194 -11.054921567742724 0 0 0
911 0 1 0 8.76985579591298 -19.028221188944023 -9.749364219349971 0 1 0
4833 0 1 0 13.082942051494422 -16.527004815404364 -13.08314862855639 -1 0 1
187 0 1 0 9.565504411197935 -14.901450934001526 -12.942789733261243 0 1 0
1049 0 1 0 10.605517374243917 -19.412189779020835 -11.147074536498494 0 0 0
2276 0 1 0 9.551492267433561 -19.347150043212753 -8.475544542197028 0 0 1
2749 0 1 0 12.107614884505072 -14.273966162709653 -12.92781736870795 0 0 0