#  LAMMPS data file

92 atoms
0 bonds
1000 extra bond per atom
100 extra special per atom

10 atom types
1 bond types
 
-26.0695796785 26.0695796785 xlo xhi 
-26.0695796785 26.0695796785 ylo yhi 
-12 12 zlo zhi 

Masses 
 
1 40.0
2 40.0
3 40.0
4 40.0
5 40.0
6 40.0
7 40.0
8 40.0
9 40.0
10 40.0

Atoms 
 
1 0 2  0 20.0535228296 0.0 -9
2 0 2  0 19.1626010762 5.91087961919 -9
3 0 2  0 16.5689981234 11.2965516447 -9
4 0 2  0 12.5031669756 15.6784754826 -9
5 0 2  0 7.32637457271 18.6672979699 -9
6 0 2  0 1.49860163779 19.9974491125 -9
7 0 2  0 -4.46232862915 19.5507391441 -9
8 0 2  0 -10.0267614148 17.3668602058 -9
9 0 2  0 -14.700272447 13.6398595249 -9
10 0 2  0 -18.0675997612 8.70089746778 -9
11 0 2  0 -19.8295415483 2.98882248734 -9
12 0 2  0 -19.8295415483 -2.98882248734 -9
13 0 2  0 -18.0675997612 -8.70089746778 -9
14 0 2  0 -14.700272447 -13.6398595249 -9
15 0 2  0 -10.0267614148 -17.3668602058 -9
16 0 2  0 -4.46232862915 -19.5507391441 -9
17 0 2  0 1.49860163779 -19.9974491125 -9
18 0 2  0 7.32637457271 -18.6672979699 -9
19 0 2  0 12.5031669756 -15.6784754826 -9
20 0 2  0 16.5689981234 -11.2965516447 -9
21 0 2  0 19.1626010762 -5.91087961919 -9
22 0 2  0 20.0535228296 0.0 -3
23 0 2  0 19.1626010762 5.91087961919 -3
24 0 2  0 16.5689981234 11.2965516447 -3
25 0 2  0 12.5031669756 15.6784754826 -3
26 0 2  0 7.32637457271 18.6672979699 -3
27 0 2  0 1.49860163779 19.9974491125 -3
28 0 2  0 -4.46232862915 19.5507391441 -3
29 0 2  0 -10.0267614148 17.3668602058 -3
30 0 2  0 -14.700272447 13.6398595249 -3
31 0 2  0 -18.0675997612 8.70089746778 -3
32 0 2  0 -19.8295415483 2.98882248734 -3
33 0 2  0 -19.8295415483 -2.98882248734 -3
34 0 2  0 -18.0675997612 -8.70089746778 -3
35 0 2  0 -14.700272447 -13.6398595249 -3
36 0 2  0 -10.0267614148 -17.3668602058 -3
37 0 2  0 -4.46232862915 -19.5507391441 -3
38 0 2  0 1.49860163779 -19.9974491125 -3
39 0 2  0 7.32637457271 -18.6672979699 -3
40 0 2  0 12.5031669756 -15.6784754826 -3
41 0 2  0 16.5689981234 -11.2965516447 -3
42 0 2  0 19.1626010762 -5.91087961919 -3
43 0 2  0 20.0535228296 0.0 3
44 0 2  0 19.1626010762 5.91087961919 3
45 0 2  0 16.5689981234 11.2965516447 3
46 0 2  0 12.5031669756 15.6784754826 3
47 0 2  0 7.32637457271 18.6672979699 3
48 0 2  0 1.49860163779 19.9974491125 3
49 0 2  0 -4.46232862915 19.5507391441 3
50 0 2  0 -10.0267614148 17.3668602058 3
51 0 2  0 -14.700272447 13.6398595249 3
52 0 2  0 -18.0675997612 8.70089746778 3
53 0 2  0 -19.8295415483 2.98882248734 3
54 0 2  0 -19.8295415483 -2.98882248734 3
55 0 2  0 -18.0675997612 -8.70089746778 3
56 0 2  0 -14.700272447 -13.6398595249 3
57 0 2  0 -10.0267614148 -17.3668602058 3
58 0 2  0 -4.46232862915 -19.5507391441 3
59 0 2  0 1.49860163779 -19.9974491125 3
60 0 2  0 7.32637457271 -18.6672979699 3
61 0 2  0 12.5031669756 -15.6784754826 3
62 0 2  0 16.5689981234 -11.2965516447 3
63 0 2  0 19.1626010762 -5.91087961919 3
64 0 2  0 20.0535228296 0.0 9
65 0 2  0 19.1626010762 5.91087961919 9
66 0 2  0 16.5689981234 11.2965516447 9
67 0 2  0 12.5031669756 15.6784754826 9
68 0 2  0 7.32637457271 18.6672979699 9
69 0 2  0 1.49860163779 19.9974491125 9
70 0 2  0 -4.46232862915 19.5507391441 9
71 0 2  0 -10.0267614148 17.3668602058 9
72 0 2  0 -14.700272447 13.6398595249 9
73 0 2  0 -18.0675997612 8.70089746778 9
74 0 2  0 -19.8295415483 2.98882248734 9
75 0 2  0 -19.8295415483 -2.98882248734 9
76 0 2  0 -18.0675997612 -8.70089746778 9
77 0 2  0 -14.700272447 -13.6398595249 9
78 0 2  0 -10.0267614148 -17.3668602058 9
79 0 2  0 -4.46232862915 -19.5507391441 9
80 0 2  0 1.49860163779 -19.9974491125 9
81 0 2  0 7.32637457271 -18.6672979699 9
82 0 2  0 12.5031669756 -15.6784754826 9
83 0 2  0 16.5689981234 -11.2965516447 9
84 0 2  0 19.1626010762 -5.91087961919 9
85 0 3 0 -1 -5 -20
86 0 4 0 -3 -7 -14
87 0 5 0 -4 7 -15
88 0 6 0 -3 0 -1
89 0 7 0 0 -4 -8
90 0 8 0 -6 7 -10
91 0 9 0 6 7 -13
92 0 10 0 6 4 -6

